 Gaussian 16, Revision C.01,
 Gaussian 16:  ES64L-G16RevC.01  3-Jul-2019

 ----------------------------------------------------------------------
 #P HF/aug-cc-pvtz Opt=(Redundant, calcall, verytight) symm=(loose,foll
 ow) Pop=(MK,Hirshfeld,ReadRadii) iop(6/33=2) iop(6/42=6) Polar Freq ma
 xdisk=128GB
 ----------------------------------------------------------------------

 -----------
 imidazolium
 -----------
 Symbolic Z-matrix:
 Charge =  1 Multiplicity = 1

 SCF Done:  E(RHF) =  -225.277036394     A.U. after   11 cycles
 SCF Done:  E(RHF) =  -225.281719130     A.U. after   10 cycles
 SCF Done:  E(RHF) =  -225.281747258     A.U. after    8 cycles
 SCF Done:  E(RHF) =  -225.281747293     A.U. after    5 cycles
 Optimization completed.
    -- Stationary point found.
 Normal termination of Gaussian 16 at Sun Sep 28 21:15:15 2025.

 ----------------------------------------------------------------------
 #P Geom=AllCheck Guess=TCheck SCRF=Check Test GenChk RHF/Aug-CC-pVTZ F
 req
 ----------------------------------------------------------------------

 Structure from the checkpoint file:  "water19.chk"
 -----------
 imidazolium
 -----------
 Charge =  1 Multiplicity = 1

                         Standard orientation:
 ---------------------------------------------------------------------
 Center     Atomic      Atomic             Coordinates (Angstroms)
 Number     Number       Type             X           Y           Z
 ---------------------------------------------------------------------
      1          6           0       -0.000000   -0.667770    0.971105
      2          6           0       -0.000000    0.667770    0.971105
      3          7           0       -0.000000    1.059907   -0.351921
      4          6           0       -0.000000   -0.000000   -1.120022
      5          7           0        0.000000   -1.059907   -0.351921
      6          1           0       -0.000000   -1.368987    1.773593
      7          1           0       -0.000000    1.368987    1.773593
      8          1           0       -0.000000    1.998674   -0.682556
      9          1           0       -0.000000   -0.000000   -2.188316
     10          1           0        0.000000   -1.998674   -0.682556
 ---------------------------------------------------------------------

 SCF Done:  E(RHF) =  -225.281747293     A.U. after    1 cycles

 The electronic state is 1-A1.
 Alpha  occ. eigenvalues --  -15.84705 -15.84701 -11.54851 -11.47145 -11.46975
 Alpha  occ. eigenvalues --   -1.61081  -1.44104  -1.25913  -1.10870  -1.05228
 Alpha  occ. eigenvalues --   -1.00308  -0.91017  -0.85320  -0.83722  -0.81881
 Alpha  occ. eigenvalues --   -0.81573  -0.66863  -0.55499
 Alpha virt. eigenvalues --   -0.09766  -0.08102  -0.07222  -0.07112  -0.05223
 Alpha virt. eigenvalues --   -0.05119  -0.04355  -0.03484  -0.03263  -0.01086
 Alpha virt. eigenvalues --   -0.00943  -0.00245   0.00093   0.00149   0.00223

 Mulliken charges:
               1
     1  C   -0.348910
     2  C   -0.348910
     3  N    0.011645
     4  C   -0.506069
     5  N    0.011645
     6  H    0.600137
     7  H    0.600137
     8  H    0.162870
     9  H    0.654587
    10  H    0.162870
 Sum of Mulliken charges =   1.00000

 Dipole moment (field-independent basis, Debye):
    X=             -0.0000    Y=              0.0000    Z=             -1.7067  Tot=              1.7067
 Quadrupole moment (field-independent basis, Debye-Ang):
   XX=            -30.1059   YY=            -13.1934   ZZ=            -16.4385
   XY=             -0.0000   XZ=             -0.0000   YZ=             -0.0000

  Exact polarizability:      26.705      -0.000      46.034      -0.000      -0.000      46.596
 Approx polarizability:      28.082      -0.000      45.040      -0.000      -0.000      43.526

 ESP charges:
               1
     1  C   -0.145023
     2  C   -0.145023
     3  N   -0.067887
     4  C    0.008287
     5  N   -0.067887
     6  H    0.247943
     7  H    0.247943
     8  H    0.341794
     9  H    0.238060
    10  H    0.341794
 Sum of ESP charges =   1.00000

                      1                      2                      3
                     B1                     A2                     A2
 Frequencies --    667.8324               673.6033               744.4255
 Red. masses --      2.8848                 2.9948                 1.2410
 Frc consts  --      0.7581                 0.8006                 0.4052
 IR Inten    --     73.7081                 0.0000                 0.0000
 Raman Activ --      0.2171                 0.5855                 0.1391

                      4                      5                      6
                     B1                     B1                     B2
 Frequencies --    791.6869               866.8954               987.2008
 Red. masses --      1.1089                 1.2167                 5.2639
 Frc consts  --      0.4095                 0.5387                 3.0225
 IR Inten    --    167.7037                84.0215                 0.8175
 Raman Activ --      0.0002                 0.0918                 1.6321

                      7                      8                      9
                     A1                     A2                     B1
 Frequencies --   1006.6754              1022.4893              1050.3741
 Red. masses --      4.4638                 1.3812                 1.4075
 Frc consts  --      2.6652                 0.8508                 0.9149
 IR Inten    --      0.4307                 0.0000                 0.2561
 Raman Activ --      0.8905                 2.3235                 0.8775

                     10                     11                     12
                     B2                     A1                     A1
 Frequencies --   1126.4325              1157.8917              1216.3122
 Red. masses --      1.6925                 2.9729                 1.2734
 Frc consts  --      1.2653                 2.3484                 1.1100
 IR Inten    --     41.5617                 2.3044                 7.2173
 Raman Activ --      1.9102                 4.3797                 7.0691

                     13                     14                     15
                     B2                     A1                     B2
 Frequencies --   1279.9380              1318.2816              1442.9436
 Red. masses --      1.2562                 1.9823                 1.5638
 Frc consts  --      1.2125                 2.0297                 1.9184
 IR Inten    --      4.0939                 7.6475                 1.0803
 Raman Activ --      2.8912                31.3518                 1.1368

                     16                     17                     18
                     B2                     A1                     B2
 Frequencies --   1578.8525              1614.4624              1702.4635
 Red. masses --      1.7838                 3.4051                 3.1887
 Frc consts  --      2.6199                 5.2292                 5.4453
 IR Inten    --     22.1140                12.9314                14.5842
 Raman Activ --      5.0214                74.6238                 0.8881

                     19                     20                     21
                     A1                     A1                     B2
 Frequencies --   1777.7775              3425.5855              3433.4802
 Red. masses --      2.8951                 1.1071                 1.0959
 Frc consts  --      5.3910                 7.6544                 7.6119
 IR Inten    --     69.2226                34.5916                23.9767
 Raman Activ --      6.1346                39.9472                37.2691

                     22                     23                     24
                     A1                     B2                     A1
 Frequencies --   3453.5775              3832.2475              3839.8083
 Red. masses --      1.1146                 1.0824                 1.0875
 Frc consts  --      7.8329                 9.3660                 9.4474
 IR Inten    --     14.4870               404.9754                26.8353
 Raman Activ --     85.5786                13.2466               102.3311

 - Thermochemistry -
 -------------------
 Temperature   298.150 Kelvin.  Pressure   1.00000 Atm.
 Atom     1 has atomic number  6 and mass  12.00000

 Molecular mass:    69.04527 amu.
 Principal axes and moments of inertia in atomic units:
                           1         2         3
     Eigenvalues --   190.19757 192.81489 383.01246
           X           -0.00000  -0.00000   1.00000
           Y            1.00000   0.00000   0.00000
           Z           -0.00000   1.00000   0.00000
 This molecule is an asymmetric top.
 Rotational symmetry number  2.
 Rotational temperatures (Kelvin)      0.45539     0.44921     0.22614
 Rotational constants (GHZ):           9.48877     9.35997     4.71196
 Zero-point vibrational energy     239320.3 (Joules/Mol)
                                   57.19894 (Kcal/Mol)
 Vibrational temperatures:    960.86   969.16  1071.06  1139.06  1247.27
          (Kelvin)           1420.36  1448.38  1471.13  1511.25  1620.69
                             1665.95  1750.00  1841.55  1896.71  2076.07
                             2271.62  2322.85  2449.47  2557.83  4928.65
                             4940.01  4968.93  5513.75  5524.63

 Zero-point correction=                           0.091152 (Hartree/Particle)
 Thermal correction to Energy=                    0.094709
 Thermal correction to Enthalpy=                  0.095653
 Thermal correction to Gibbs Free Energy=         0.065578
 Sum of electronic and zero-point Energies=           -225.190595
 Sum of electronic and thermal Energies=              -225.187039
 Sum of electronic and thermal Enthalpies=            -225.186095
 Sum of electronic and thermal Free Energies=         -225.216169

                     E (Thermal)             CV                S
                      KCal/Mol        Cal/Mol-Kelvin    Cal/Mol-Kelvin
 Total                   59.430             12.378             63.298
 Electronic               0.000              0.000              0.000
 Translational            0.889              2.981             38.614
 Rotational               0.889              2.981             22.778
 Vibrational             57.653              6.416              1.906

 Optimization completed.
    -- Stationary point found.
 Normal termination of Gaussian 16 at Sun Sep 28 21:20:41 2025.
