 Gaussian 16, Revision C.01,
 Gaussian 16:  ES64L-G16RevC.01  3-Jul-2019

 ----------------------------------------------------------------------
 #P HF/aug-cc-pvtz Opt=tight Pop=(MK,Hirshfeld) iop(6/33=2) iop(6/42=6)
  maxdisk=128GB
 ----------------------------------------------------------------------

 -----------
 imidazolium
 -----------
 Symbolic Z-matrix:
 Charge =  1 Multiplicity = 1

 SCF Done:  E(RHF) =  -225.281747293     A.U. after   11 cycles

 The electronic state is 1-A1.
 Alpha  occ. eigenvalues --  -15.84705 -15.84701 -11.54851 -11.47145 -11.46974
 Alpha  occ. eigenvalues --   -1.61081  -1.44104  -1.25913  -1.10870  -1.05228
 Alpha  occ. eigenvalues --   -1.00308  -0.91018  -0.85320  -0.83722  -0.81881
 Alpha  occ. eigenvalues --   -0.81573  -0.66863  -0.55499
 Alpha virt. eigenvalues --   -0.09766  -0.08102  -0.07222  -0.07112  -0.05223
 Alpha virt. eigenvalues --   -0.05119  -0.04355  -0.03484  -0.03263  -0.01086
 Alpha virt. eigenvalues --   -0.00943  -0.00245   0.00093   0.00149   0.00223

 Mulliken charges:
               1
     1  C   -0.348910
     2  C   -0.348910
     3  N    0.011649
     4  C   -0.506065
     5  N    0.011649
     6  H    0.600136
     7  H    0.600136
     8  H    0.162867
     9  H    0.654582
    10  H    0.162867
 Sum of Mulliken charges =   1.00000

 Dipole moment (field-independent basis, Debye):
    X=             -0.0000    Y=             -0.0000    Z=              1.7067  Tot=              1.7067
 Quadrupole moment (field-independent basis, Debye-Ang):
   XX=            -30.1059   YY=            -13.1934   ZZ=            -16.4385
   XY=              0.0000   XZ=              0.0000   YZ=              0.0000

 ESP charges:
               1
     1  C   -0.142301
     2  C   -0.142301
     3  N   -0.065031
     4  C    0.010105
     5  N   -0.065031
     6  H    0.245003
     7  H    0.245003
     8  H    0.339649
     9  H    0.235258
    10  H    0.339649
 Sum of ESP charges =   1.00000

 Optimization completed.
    -- Stationary point found.

                         Standard orientation:
 ---------------------------------------------------------------------
 Center     Atomic      Atomic             Coordinates (Angstroms)
 Number     Number       Type             X           Y           Z
 ---------------------------------------------------------------------
      1          6           0        0.000000    0.667770   -0.971102
      2          6           0       -0.000000   -0.667770   -0.971102
      3          7           0        0.000000   -1.059910    0.351918
      4          6           0        0.000000   -0.000000    1.120018
      5          7           0        0.000000    1.059910    0.351918
      6          1           0        0.000000    1.368990   -1.773592
      7          1           0       -0.000000   -1.368990   -1.773592
      8          1           0        0.000000   -1.998670    0.682558
      9          1           0        0.000000   -0.000000    2.188318
     10          1           0        0.000000    1.998670    0.682558
 ---------------------------------------------------------------------

 Normal termination of Gaussian 16 at Tue Sep 30 16:59:15 2025.
