 Gaussian 16, Revision C.01,
 Gaussian 16:  ES64L-G16RevC.01  3-Jul-2019

 ----------------------------------------------------------------------
 #P HF/aug-cc-pvtz Opt=tight Pop=(MK,Hirshfeld) iop(6/33=2) iop(6/42=6)
  maxdisk=128GB
 ----------------------------------------------------------------------

 ---------
 imidazole
 ---------
 Symbolic Z-matrix:
 Charge =  0 Multiplicity = 1

 SCF Done:  E(RHF) =  -224.900121903     A.U. after   13 cycles

 The electronic state is 1-A'.
 Alpha  occ. eigenvalues --  -15.61812 -15.53905 -11.28957 -11.25606 -11.23736
 Alpha  occ. eigenvalues --   -1.35452  -1.17417  -1.01616  -0.83333  -0.80526
 Alpha  occ. eigenvalues --   -0.76645  -0.61521  -0.60695  -0.60513  -0.57439
 Alpha  occ. eigenvalues --   -0.43617  -0.40294  -0.32685
 Alpha virt. eigenvalues --    0.02120   0.03453   0.04140   0.05240   0.07161
 Alpha virt. eigenvalues --    0.08504   0.10420   0.10557   0.10908   0.11174
 Alpha virt. eigenvalues --    0.11735   0.12677   0.13067   0.14103   0.15485

 Mulliken charges:
               1
     1  C   -0.525266
     2  H    0.567290
     3  C   -0.312900
     4  H    0.572145
     5  N   -0.463243
     6  C   -0.597869
     7  H    0.614249
     8  N    0.037956
     9  H    0.107637
 Sum of Mulliken charges =  -0.00000

 Dipole moment (field-independent basis, Debye):
    X=              1.0742    Y=              3.6360    Z=              0.0000  Tot=              3.7913
 Quadrupole moment (field-independent basis, Debye-Ang):
   XX=            -26.7541   YY=            -25.9859   ZZ=            -32.3257
   XY=             -3.5357   XZ=              0.0000   YZ=              0.0000

 ESP charges:
               1
     1  C   -0.370283
     2  H    0.213596
     3  C    0.145180
     4  H    0.106600
     5  N   -0.524879
     6  C    0.187056
     7  H    0.104937
     8  N   -0.137124
     9  H    0.274916
 Sum of ESP charges =   0.00000

 Optimization completed.
    -- Stationary point found.

                         Standard orientation:
 ---------------------------------------------------------------------
 Center     Atomic      Atomic             Coordinates (Angstroms)
 Number     Number       Type             X           Y           Z
 ---------------------------------------------------------------------
      1          6           0        1.107520    0.286751    0.000000
      2          1           0        2.100580    0.675091    0.000000
      3          6           0        0.630141   -0.973399    0.000000
      4          1           0        1.182821   -1.886799    0.000000
      5          7           0       -0.740359   -0.962109    0.000000
      6          6           0       -1.073190    0.280141    0.000000
      7          1           0       -2.074120    0.656410    0.000000
      8          7           0        0.000000    1.092511    0.000000
      9          1           0       -0.013590    2.081531    0.000000
 ---------------------------------------------------------------------

 Normal termination of Gaussian 16 at Tue Sep 30 16:59:30 2025.
