 Gaussian 16, Revision C.01,
 Gaussian 16:  ES64L-G16RevC.01  3-Jul-2019

 ----------------------------------------------------------------------
 #P HF/aug-cc-pvtz Opt=(Redundant, calcall, verytight) symm=(loose,foll
 ow) Pop=(MK,Hirshfeld,ReadRadii) iop(6/33=2) iop(6/42=6) Polar Freq ma
 xdisk=128GB
 ----------------------------------------------------------------------

 ---------
 imidazole
 ---------
 Symbolic Z-matrix:
 Charge =  0 Multiplicity = 1

 SCF Done:  E(RHF) =  -224.894569730     A.U. after   13 cycles
 SCF Done:  E(RHF) =  -224.900080489     A.U. after   10 cycles
 SCF Done:  E(RHF) =  -224.900121829     A.U. after    9 cycles
 SCF Done:  E(RHF) =  -224.900121903     A.U. after    6 cycles
 Optimization completed.
    -- Stationary point found.
 Normal termination of Gaussian 16 at Sun Sep 28 21:07:23 2025.

 ----------------------------------------------------------------------
 #P Geom=AllCheck Guess=TCheck SCRF=Check Test GenChk RHF/Aug-CC-pVTZ F
 req
 ----------------------------------------------------------------------

 Structure from the checkpoint file:  "water19.chk"
 ---------
 imidazole
 ---------
 Charge =  0 Multiplicity = 1

                         Standard orientation:
 ---------------------------------------------------------------------
 Center     Atomic      Atomic             Coordinates (Angstroms)
 Number     Number       Type             X           Y           Z
 ---------------------------------------------------------------------
      1          6           0        1.107523    0.286751    0.000000
      2          1           0        2.100579    0.675093    0.000000
      3          6           0        0.630143   -0.973402    0.000000
      4          1           0        1.182817   -1.886804    0.000000
      5          7           0       -0.740361   -0.962112    0.000000
      6          6           0       -1.073192    0.280143    0.000000
      7          1           0       -2.074124    0.656413    0.000000
      8          7           0       -0.000000    1.092515    0.000000
      9          1           0       -0.013594    2.081525    0.000000
 ---------------------------------------------------------------------

 SCF Done:  E(RHF) =  -224.900121903     A.U. after    1 cycles

 The electronic state is 1-A'.
 Alpha  occ. eigenvalues --  -15.61812 -15.53905 -11.28957 -11.25607 -11.23736
 Alpha  occ. eigenvalues --   -1.35452  -1.17417  -1.01616  -0.83333  -0.80526
 Alpha  occ. eigenvalues --   -0.76645  -0.61521  -0.60695  -0.60513  -0.57439
 Alpha  occ. eigenvalues --   -0.43617  -0.40294  -0.32685
 Alpha virt. eigenvalues --    0.02120   0.03453   0.04140   0.05240   0.07161
 Alpha virt. eigenvalues --    0.08504   0.10420   0.10557   0.10908   0.11174
 Alpha virt. eigenvalues --    0.11735   0.12677   0.13067   0.14103   0.15485

 Mulliken charges:
               1
     1  C   -0.525268
     2  H    0.567290
     3  C   -0.312907
     4  H    0.572148
     5  N   -0.463240
     6  C   -0.597861
     7  H    0.614246
     8  N    0.037957
     9  H    0.107635
 Sum of Mulliken charges =  -0.00000

 Dipole moment (field-independent basis, Debye):
    X=              1.0742    Y=              3.6360    Z=              0.0000  Tot=              3.7913
 Quadrupole moment (field-independent basis, Debye-Ang):
   XX=            -26.7541   YY=            -25.9859   ZZ=            -32.3257
   XY=             -3.5357   XZ=              0.0000   YZ=              0.0000

  Exact polarizability:      52.888      -0.527      51.492       0.000       0.000      32.766
 Approx polarizability:      48.957       0.004      50.055      -0.000      -0.000      33.623

 ESP charges:
               1
     1  C   -0.407359
     2  H    0.224091
     3  C    0.170690
     4  H    0.099185
     5  N   -0.528869
     6  C    0.176609
     7  H    0.108001
     8  N   -0.108156
     9  H    0.265808
 Sum of ESP charges =   0.00000

                      1                      2                      3
                     A"                     A"                     A"
 Frequencies --    553.0879               690.5877               729.7187
 Red. masses --      1.4290                 2.1926                 2.8234
 Frc consts  --      0.2576                 0.6161                 0.8858
 IR Inten    --    115.9848                 4.8846                12.0348
 Raman Activ --      0.1410                 0.3276                 0.2564

                      4                      5                      6
                     A"                     A'                     A"
 Frequencies --    843.6912               980.4304               981.3376
 Red. masses --      1.2471                 5.5449                 1.4271
 Frc consts  --      0.5230                 3.1404                 0.8098
 IR Inten    --     61.8873                 6.7398                20.7641
 Raman Activ --      2.0621                 0.8131                 1.6514

                      7                      8                      9
                     A"                     A'                     A'
 Frequencies --   1012.2971              1018.3489              1143.8944
 Red. masses --      1.3899                 4.5665                 1.7439
 Frc consts  --      0.8392                 2.7902                 1.3445
 IR Inten    --      0.0000                 1.3096                56.2680
 Raman Activ --      2.7381                 0.8762                 1.5038

                     10                     11                     12
                     A'                     A'                     A'
 Frequencies --   1173.8123              1216.8530              1243.6110
 Red. masses --      1.6647                 3.2505                 1.6104
 Frc consts  --      1.3514                 2.8358                 1.4675
 IR Inten    --     12.6951                 4.1622                 6.0873
 Raman Activ --      1.1442                10.1548                24.8166

                     13                     14                     15
                     A'                     A'                     A'
 Frequencies --   1402.9205              1481.1908              1566.6229
 Red. masses --      1.3858                 3.1702                 2.5388
 Frc consts  --      1.6070                 4.0978                 3.6712
 IR Inten    --      0.6994                 9.1898                23.9778
 Raman Activ --     13.1950                36.6294                30.4021

                     16                     17                     18
                     A'                     A'                     A'
 Frequencies --   1642.9093              1719.4388              3392.8992
 Red. masses --      2.9898                 3.4224                 1.0989
 Frc consts  --      4.7547                 5.9615                 7.4536
 IR Inten    --     24.7501                21.8982                 4.3360
 Raman Activ --     38.0478                 2.8373                56.4953

                     19                     20                     21
                     A'                     A'                     A'
 Frequencies --   3399.0696              3428.3639              3908.0638
 Red. masses --      1.0932                 1.1077                 1.0826
 Frc consts  --      7.4414                 7.6710                 9.7420
 IR Inten    --      3.2365                 1.9681                93.1183
 Raman Activ --     66.1164                93.6562                82.0887

 - Thermochemistry -
 -------------------
 Temperature   298.150 Kelvin.  Pressure   1.00000 Atm.
 Atom     1 has atomic number  6 and mass  12.00000

 Molecular mass:    68.03745 amu.
 Principal axes and moments of inertia in atomic units:
                           1         2         3
     Eigenvalues --   181.47466 186.13716 367.61181
           X            0.50630   0.86236   0.00000
           Y            0.86236  -0.50630   0.00000
           Z            0.00000  -0.00000   1.00000
 This molecule is an asymmetric top.
 Rotational symmetry number  1.
 Rotational temperatures (Kelvin)      0.47728     0.46532     0.23561
 Rotational constants (GHZ):           9.94487     9.69576     4.90937
 Zero-point vibrational energy     200548.8 (Joules/Mol)
                                   47.93232 (Kcal/Mol)
 Warning -- explicit consideration of   1 degrees of freedom as
           vibrations may cause significant error
 Vibrational temperatures:    795.77   993.60  1049.90  1213.88  1410.62
          (Kelvin)           1411.93  1456.47  1465.18  1645.81  1688.85
                             1750.78  1789.28  2018.49  2131.10  2254.02
                             2363.78  2473.89  4881.63  4890.50  4932.65
                             5622.83

 Zero-point correction=                           0.076385 (Hartree/Particle)
 Thermal correction to Energy=                    0.079929
 Thermal correction to Enthalpy=                  0.080873
 Thermal correction to Gibbs Free Energy=         0.050225
 Sum of electronic and zero-point Energies=           -224.823737
 Sum of electronic and thermal Energies=              -224.820193
 Sum of electronic and thermal Enthalpies=            -224.819249
 Sum of electronic and thermal Free Energies=         -224.849897

                     E (Thermal)             CV                S
                      KCal/Mol        Cal/Mol-Kelvin    Cal/Mol-Kelvin
 Total                   50.156             11.978             64.505
 Electronic               0.000              0.000              0.000
 Translational            0.889              2.981             38.570
 Rotational               0.889              2.981             24.033
 Vibrational             48.379              6.016              1.902
 Vibration     1          0.908              1.133              0.538

 Optimization completed.
    -- Stationary point found.
 Normal termination of Gaussian 16 at Sun Sep 28 21:13:13 2025.
