 Gaussian 16, Revision C.01,
 Gaussian 16:  ES64L-G16RevC.01  3-Jul-2019

 ----------------------------------------------------------------------
 #P HF/aug-cc-pvtz Opt=tight Pop=(MK,Hirshfeld) iop(6/33=2) iop(6/42=6)
  maxdisk=128GB
 ----------------------------------------------------------------------

 -------------------
 1-methylimidazolium
 -------------------
 Symbolic Z-matrix:
 Charge =  1 Multiplicity = 1

 SCF Done:  E(RHF) =  -264.332102605     A.U. after   12 cycles

 The electronic state is 1-A'.
 Alpha  occ. eigenvalues --  -15.83767 -15.83220 -11.53020 -11.46053 -11.45486
 Alpha  occ. eigenvalues --  -11.44478  -1.59846  -1.43816  -1.24884  -1.18046
 Alpha  occ. eigenvalues --   -1.05308  -1.02005  -0.98076  -0.85940  -0.85467
 Alpha  occ. eigenvalues --   -0.82046  -0.81123  -0.79357  -0.76671  -0.74157
 Alpha  occ. eigenvalues --   -0.62852  -0.54238
 Alpha virt. eigenvalues --   -0.08987  -0.07274  -0.07152  -0.06797  -0.04767
 Alpha virt. eigenvalues --   -0.04674  -0.04038  -0.03717  -0.03209  -0.01699
 Alpha virt. eigenvalues --   -0.01393  -0.01086  -0.00917   0.00087   0.00489

 Mulliken charges:
               1
     1  N   -0.234782
     2  C   -0.309715
     3  C   -0.593254
     4  N    0.282332
     5  C   -0.436404
     6  C   -0.823910
     7  H    0.608676
     8  H    0.576768
     9  H    0.673462
    10  H    0.353348
    11  H    0.353348
    12  H    0.380195
    13  H    0.169937
 Sum of Mulliken charges =   1.00000

 Dipole moment (field-independent basis, Debye):
    X=              1.5255    Y=             -0.5677    Z=              0.0000  Tot=              1.6277
 Quadrupole moment (field-independent basis, Debye-Ang):
   XX=            -22.7897   YY=            -16.1297   ZZ=            -35.8346
   XY=             -1.7953   XZ=             -0.0000   YZ=              0.0000

 ESP charges:
               1
     1  N   -0.178586
     2  C   -0.105108
     3  C   -0.246392
     4  N    0.292352
     5  C   -0.012420
     6  C   -0.401989
     7  H    0.242533
     8  H    0.254030
     9  H    0.226296
    10  H    0.189987
    11  H    0.189987
    12  H    0.178038
    13  H    0.371272
 Sum of ESP charges =   1.00000

 Optimization completed.
    -- Stationary point found.

                         Standard orientation:
 ---------------------------------------------------------------------
 Center     Atomic      Atomic             Coordinates (Angstroms)
 Number     Number       Type             X           Y           Z
 ---------------------------------------------------------------------
      1          7           0        0.668155   -1.394056    0.000000
      2          6           0       -0.705999   -1.439853    0.000000
      3          6           0       -1.124012   -0.170434    0.000000
      4          7           0        0.000000    0.631548    0.000000
      5          6           0        1.054432   -0.137778    0.000000
      6          6           0       -0.002743    2.096301    0.000000
      7          1           0       -1.248747   -2.357067    0.000000
      8          1           0       -2.109031    0.237302    0.000000
      9          1           0        2.068626    0.197264    0.000000
     10          1           0       -0.507867    2.450396    0.884550
     11          1           0       -0.507867    2.450396   -0.884550
     12          1           0        1.016343    2.446832    0.000000
     13          1           0        1.281389   -2.176979    0.000000
 ---------------------------------------------------------------------

 Normal termination of Gaussian 16 at Tue Sep 30 17:00:50 2025.
