 Gaussian 16, Revision C.01,
 Gaussian 16:  ES64L-G16RevC.01  3-Jul-2019

 ----------------------------------------------------------------------
 #P HF/aug-cc-pvtz Opt=(Redundant, calcall, verytight) symm=(loose,foll
 ow) Pop=(MK,Hirshfeld,ReadRadii) iop(6/33=2) iop(6/42=6) Polar Freq ma
 xdisk=128GB
 ----------------------------------------------------------------------

 -------------------
 1-methylimidazolium
 -------------------
 Symbolic Z-matrix:
 Charge =  1 Multiplicity = 1

 SCF Done:  E(RHF) =  -264.320633696     A.U. after   12 cycles
 SCF Done:  E(RHF) =  -264.330891718     A.U. after   12 cycles
 SCF Done:  E(RHF) =  -264.331776646     A.U. after   11 cycles
 SCF Done:  E(RHF) =  -264.332079420     A.U. after   11 cycles
 SCF Done:  E(RHF) =  -264.332102393     A.U. after    9 cycles
 SCF Done:  E(RHF) =  -264.332102598     A.U. after    7 cycles
 SCF Done:  E(RHF) =  -264.332102606     A.U. after    5 cycles
 SCF Done:  E(RHF) =  -264.332102606     A.U. after    2 cycles
 SCF Done:  E(RHF) =  -264.332102606     A.U. after    1 cycles
 SCF Done:  E(RHF) =  -264.332102606     A.U. after    4 cycles
 SCF Done:  E(RHF) =  -264.332102606     A.U. after    4 cycles
 SCF Done:  E(RHF) =  -264.332102606     A.U. after    4 cycles
 SCF Done:  E(RHF) =  -264.332102606     A.U. after    3 cycles
 SCF Done:  E(RHF) =  -264.332102606     A.U. after    3 cycles
 SCF Done:  E(RHF) =  -264.332102606     A.U. after    2 cycles
 SCF Done:  E(RHF) =  -264.332102606     A.U. after    1 cycles
 SCF Done:  E(RHF) =  -264.332102606     A.U. after    1 cycles
 Optimization completed.
    -- Stationary point found.
 Normal termination of Gaussian 16 at Mon Sep 29 02:13:46 2025.

 ----------------------------------------------------------------------
 #P Geom=AllCheck Guess=TCheck SCRF=Check Test GenChk RHF/Aug-CC-pVTZ F
 req
 ----------------------------------------------------------------------

 Structure from the checkpoint file:  "water19.chk"
 -------------------
 1-methylimidazolium
 -------------------
 Charge =  1 Multiplicity = 1

                         Standard orientation:
 ---------------------------------------------------------------------
 Center     Atomic      Atomic             Coordinates (Angstroms)
 Number     Number       Type             X           Y           Z
 ---------------------------------------------------------------------
      1          7           0        1.478471   -0.451611   -0.000000
      2          6           0        1.317742    0.913880    0.000000
      3          6           0        0.000000    1.136860    0.000000
      4          7           0       -0.624413   -0.094682    0.000000
      5          6           0        0.294299   -1.021861   -0.000000
      6          6           0       -2.073024   -0.311565    0.000000
      7          1           0        2.143220    1.587997    0.000000
      8          1           0       -0.550803    2.049615    0.000000
      9          1           0        0.115092   -2.074818   -0.000000
     10          1           0       -2.498837    0.134768   -0.884545
     11          1           0       -2.498837    0.134768    0.884545
     12          1           0       -2.266813   -1.371683   -0.000000
     13          1           0        2.344478   -0.940539   -0.000000
 ---------------------------------------------------------------------

 SCF Done:  E(RHF) =  -264.332102606     A.U. after    3 cycles

 The electronic state is 1-A'.
 Alpha  occ. eigenvalues --  -15.83767 -15.83220 -11.53020 -11.46054 -11.45486
 Alpha  occ. eigenvalues --  -11.44478  -1.59846  -1.43816  -1.24884  -1.18046
 Alpha  occ. eigenvalues --   -1.05308  -1.02005  -0.98076  -0.85940  -0.85467
 Alpha  occ. eigenvalues --   -0.82046  -0.81123  -0.79357  -0.76671  -0.74157
 Alpha  occ. eigenvalues --   -0.62852  -0.54238
 Alpha virt. eigenvalues --   -0.08987  -0.07274  -0.07152  -0.06797  -0.04767
 Alpha virt. eigenvalues --   -0.04674  -0.04038  -0.03717  -0.03209  -0.01699
 Alpha virt. eigenvalues --   -0.01393  -0.01086  -0.00917   0.00087   0.00489

 Mulliken charges:
               1
     1  N   -0.234779
     2  C   -0.309718
     3  C   -0.593254
     4  N    0.282327
     5  C   -0.436403
     6  C   -0.823910
     7  H    0.608676
     8  H    0.576770
     9  H    0.673464
    10  H    0.353348
    11  H    0.353348
    12  H    0.380197
    13  H    0.169935
 Sum of Mulliken charges =   1.00000

 Dipole moment (field-independent basis, Debye):
    X=              0.7899    Y=             -1.4232    Z=             -0.0000  Tot=              1.6277
 Quadrupole moment (field-independent basis, Debye-Ang):
   XX=            -15.7471   YY=            -23.1722   ZZ=            -35.8346
   XY=             -0.7274   XZ=             -0.0000   YZ=             -0.0000

  Exact polarizability:      63.476       0.885      55.085       0.000       0.000      35.579
 Approx polarizability:      55.832      -0.645      53.063       0.000       0.000      37.121

 ESP charges:
               1
     1  N   -0.222968
     2  C   -0.090664
     3  C   -0.247046
     4  N    0.290198
     5  C   -0.002388
     6  C   -0.391675
     7  H    0.243374
     8  H    0.253143
     9  H    0.228437
    10  H    0.187636
    11  H    0.187636
    12  H    0.175022
    13  H    0.389295
 Sum of ESP charges =   1.00000

                      1                      2                      3
                     A"                     A"                     A'
 Frequencies --    112.1572               253.0277               374.1863
 Red. masses --      1.0776                 3.0580                 2.6372
 Frc consts  --      0.0080                 0.1154                 0.2176
 IR Inten    --      0.2521                 5.1707                 0.5974
 Raman Activ --      0.1166                 0.8642                 0.3123

                      4                      5                      6
                     A"                     A"                     A'
 Frequencies --    668.9137               684.7399               692.9445
 Red. masses --      2.9757                 2.8318                 4.5047
 Frc consts  --      0.7845                 0.7823                 1.2744
 IR Inten    --     52.5399                21.4455                 9.2517
 Raman Activ --      0.3319                 0.2625                 7.1439

                      7                      8                      9
                     A"                     A"                     A'
 Frequencies --    744.9113               865.9436              1000.5701
 Red. masses --      1.1738                 1.2255                 5.2552
 Frc consts  --      0.3837                 0.5414                 3.0998
 IR Inten    --     64.1166                61.2604                 2.0371
 Raman Activ --      0.0077                 0.1362                 1.6668

                     10                     11                     12
                     A"                     A"                     A'
 Frequencies --   1019.0778              1033.0706              1090.6347
 Red. masses --      1.3945                 1.4220                 3.2567
 Frc consts  --      0.8533                 0.8941                 2.2824
 IR Inten    --      1.5086                 6.6522                 3.1059
 Raman Activ --      2.0469                 0.8295                 5.8966

                     13                     14                     15
                     A'                     A'                     A'
 Frequencies --   1150.6476              1187.3423              1218.1855
 Red. masses --      2.1752                 1.5681                 1.2573
 Frc consts  --      1.6968                 1.3025                 1.0993
 IR Inten    --     24.6372                 3.2507                 6.9938
 Raman Activ --      3.6269                 6.7281                 5.2341

                     16                     17                     18
                     A"                     A'                     A'
 Frequencies --   1258.1086              1261.5661              1395.0173
 Red. masses --      1.3232                 1.3032                 3.1873
 Frc consts  --      1.2340                 1.2220                 3.6545
 IR Inten    --      0.3914                27.4372                30.8892
 Raman Activ --      0.2654                 4.7250                 8.0684

                     19                     20                     21
                     A'                     A'                     A'
 Frequencies --   1441.3366              1520.7310              1585.2266
 Red. masses --      1.6248                 2.7526                 1.2076
 Frc consts  --      1.9888                 3.7506                 1.7879
 IR Inten    --      2.7454                15.5365                11.9367
 Raman Activ --      4.6946                19.2694                 1.4949

                     22                     23                     24
                     A"                     A'                     A'
 Frequencies --   1601.8040              1603.4729              1630.1690
 Red. masses --      1.0392                 2.5763                 1.1149
 Frc consts  --      1.5710                 3.9027                 1.7457
 IR Inten    --     14.3390                12.0842                13.4059
 Raman Activ --      4.9418                46.5894                12.3338

                     25                     26                     27
                     A'                     A'                     A'
 Frequencies --   1722.8740              1778.6043              3211.8069
 Red. masses --      3.3877                 3.4469                 1.0311
 Frc consts  --      5.9246                 6.4244                 6.2670
 IR Inten    --     64.8679                40.4563                 5.4670
 Raman Activ --      6.9157                 5.2082               147.6341

                     28                     29                     30
                     A"                     A'                     A'
 Frequencies --   3297.8834              3307.0714              3424.7025
 Red. masses --      1.1091                 1.1084                 1.1058
 Frc consts  --      7.1072                 7.1425                 7.6412
 IR Inten    --      1.2043                 1.8936                27.1088
 Raman Activ --     47.5318                37.5829                34.0883

                     31                     32                     33
                     A'                     A'                     A'
 Frequencies --   3429.1606              3450.0795              3845.1835
 Red. masses --      1.0957                 1.1140                 1.0847
 Frc consts  --      7.5912                 7.8123                 9.4494
 IR Inten    --     19.6095                11.3394               223.4413
 Raman Activ --     36.8562                89.7031                66.7733

 - Thermochemistry -
 -------------------
 Temperature   298.150 Kelvin.  Pressure   1.00000 Atm.
 Atom     1 has atomic number  7 and mass  14.00307

 Molecular mass:    83.06092 amu.
 Principal axes and moments of inertia in atomic units:
                           1         2         3
     Eigenvalues --   199.60222 503.69280 692.03128
           X            0.98922  -0.14646   0.00000
           Y            0.14646   0.98922   0.00000
           Z            0.00000  -0.00000   1.00000
 This molecule is an asymmetric top.
 Rotational symmetry number  1.
 Rotational temperatures (Kelvin)      0.43393     0.17196     0.12516
 Rotational constants (GHZ):           9.04169     3.58302     2.60789
 Zero-point vibrational energy     316179.9 (Joules/Mol)
                                   75.56881 (Kcal/Mol)
 Warning -- explicit consideration of   3 degrees of freedom as
           vibrations may cause significant error
 Vibrational temperatures:    161.37   364.05   538.37   962.42   985.19
          (Kelvin)            996.99  1071.76  1245.90  1439.60  1466.23
                             1486.36  1569.18  1655.53  1708.32  1752.70
                             1810.14  1815.11  2007.12  2073.76  2187.99
                             2280.79  2304.64  2307.04  2345.45  2478.83
                             2559.01  4621.07  4744.92  4758.14  4927.38
                             4933.80  4963.89  5532.36

 Zero-point correction=                           0.120427 (Hartree/Particle)
 Thermal correction to Energy=                    0.125550
 Thermal correction to Enthalpy=                  0.126494
 Thermal correction to Gibbs Free Energy=         0.091847
 Sum of electronic and zero-point Energies=           -264.211676
 Sum of electronic and thermal Energies=              -264.206553
 Sum of electronic and thermal Enthalpies=            -264.205609
 Sum of electronic and thermal Free Energies=         -264.240256

                     E (Thermal)             CV                S
                      KCal/Mol        Cal/Mol-Kelvin    Cal/Mol-Kelvin
 Total                   78.784             17.954             72.921
 Electronic               0.000              0.000              0.000
 Translational            0.889              2.981             39.165
 Rotational               0.889              2.981             25.745
 Vibrational             77.006             11.992              8.011
 Vibration     1          0.607              1.939              3.231
 Vibration     2          0.664              1.758              1.709
 Vibration     3          0.745              1.525              1.063

                           ! Non-Optimized Parameters !
 Normal termination of Gaussian 16 at Mon Sep 29 02:35:07 2025.
