 Gaussian 16, Revision C.01,
 Gaussian 16:  ES64L-G16RevC.01  3-Jul-2019

 ----------------------------------------------------------------------
 #P HF/aug-cc-pvtz Opt=tight Pop=(MK,Hirshfeld) iop(6/33=2) iop(6/42=6)
  maxdisk=128GB
 ----------------------------------------------------------------------

 ---------
 guanidine
 ---------
 Symbolic Z-matrix:
 Charge =  0 Multiplicity = 1

 SCF Done:  E(RHF) =  -204.216558037     A.U. after   12 cycles

 The electronic state is 1-A.
 Alpha  occ. eigenvalues --  -15.57549 -15.56497 -15.50446 -11.33781  -1.30481
 Alpha  occ. eigenvalues --   -1.17528  -1.14132  -0.81707  -0.73817  -0.71658
 Alpha  occ. eigenvalues --   -0.63606  -0.61771  -0.56998  -0.43590  -0.42197
 Alpha  occ. eigenvalues --   -0.36558
 Alpha virt. eigenvalues --    0.02345   0.03491   0.04342   0.05655   0.06183
 Alpha virt. eigenvalues --    0.08915   0.11227   0.12263   0.12572   0.13152
 Alpha virt. eigenvalues --    0.13732   0.14326   0.15627   0.17105   0.17378

 Mulliken charges:
               1
     1  C    0.448332
     2  N   -0.286541
     3  N   -0.249180
     4  N   -0.625530
     5  H    0.184829
     6  H    0.101950
     7  H    0.143331
     8  H    0.133368
     9  H    0.149440
 Sum of Mulliken charges =  -0.00000

 Dipole moment (field-independent basis, Debye):
    X=             -0.7629    Y=             -2.9598    Z=             -0.0104  Tot=              3.0566
 Quadrupole moment (field-independent basis, Debye-Ang):
   XX=            -17.7610   YY=            -26.6652   ZZ=            -27.2687
   XY=             -0.9950   XZ=              2.8783   YZ=              0.5200

 ESP charges:
               1
     1  C    0.967661
     2  N   -0.978641
     3  N   -0.984706
     4  N   -0.960226
     5  H    0.417352
     6  H    0.394466
     7  H    0.373996
     8  H    0.400710
     9  H    0.369387
 Sum of ESP charges =  -0.00000

 Optimization completed.
    -- Stationary point found.

                         Standard orientation:
 ---------------------------------------------------------------------
 Center     Atomic      Atomic             Coordinates (Angstroms)
 Number     Number       Type             X           Y           Z
 ---------------------------------------------------------------------
      1          6           0       -0.019063    0.122397    0.000270
      2          7           0       -0.941790   -0.903873    0.073260
      3          7           0        1.278607   -0.334944   -0.078150
      4          7           0       -0.262731    1.356462    0.005960
      5          1           0        1.946161    0.392271    0.034250
      6          1           0        1.479275   -1.142619    0.465010
      7          1           0       -1.886757   -0.631444   -0.059670
      8          1           0       -0.700742   -1.728078   -0.426850
      9          1           0       -1.242155    1.551970   -0.021850
 ---------------------------------------------------------------------

 Normal termination of Gaussian 16 at Tue Sep 30 16:59:24 2025.
