 Gaussian 16, Revision C.01,
 Gaussian 16:  ES64L-G16RevC.01  3-Jul-2019

 ----------------------------------------------------------------------
 #P HF/aug-cc-pvtz Opt=(Redundant, calcall, verytight) symm=(loose,foll
 ow) Pop=(MK,Hirshfeld,ReadRadii) iop(6/33=2) iop(6/42=6) Polar Freq ma
 xdisk=128GB
 ----------------------------------------------------------------------

 ---------
 guanidine
 ---------
 Symbolic Z-matrix:
 Charge =  0 Multiplicity = 1

 SCF Done:  E(RHF) =  -204.210818478     A.U. after   12 cycles
 SCF Done:  E(RHF) =  -204.212260287     A.U. after   11 cycles
 SCF Done:  E(RHF) =  -204.214349809     A.U. after   12 cycles
 SCF Done:  E(RHF) =  -204.216505119     A.U. after   11 cycles
 SCF Done:  E(RHF) =  -204.216557758     A.U. after   10 cycles
 SCF Done:  E(RHF) =  -204.216558037     A.U. after    7 cycles
 SCF Done:  E(RHF) =  -204.216558037     A.U. after    3 cycles
 Optimization completed.
    -- Stationary point found.
 Normal termination of Gaussian 16 at Sun Sep 28 21:08:27 2025.

 ----------------------------------------------------------------------
 #P Geom=AllCheck Guess=TCheck SCRF=Check Test GenChk RHF/Aug-CC-pVTZ F
 req
 ----------------------------------------------------------------------

 Structure from the checkpoint file:  "water19.chk"
 ---------
 guanidine
 ---------
 Charge =  0 Multiplicity = 1

                         Standard orientation:
 ---------------------------------------------------------------------
 Center     Atomic      Atomic             Coordinates (Angstroms)
 Number     Number       Type             X           Y           Z
 ---------------------------------------------------------------------
      1          6           0       -0.019060    0.122398    0.000274
      2          7           0       -0.941815   -0.903853    0.073256
      3          7           0        1.278605   -0.334969   -0.078148
      4          7           0       -0.262702    1.356465    0.005957
      5          1           0        1.946172    0.392232    0.034254
      6          1           0        1.479254   -1.142646    0.465014
      7          1           0       -1.886773   -0.631402   -0.059668
      8          1           0       -0.700784   -1.728063   -0.426850
      9          1           0       -1.242122    1.551998   -0.021848
 ---------------------------------------------------------------------

 SCF Done:  E(RHF) =  -204.216558037     A.U. after    1 cycles

 The electronic state is 1-A.
 Alpha  occ. eigenvalues --  -15.57549 -15.56497 -15.50446 -11.33781  -1.30480
 Alpha  occ. eigenvalues --   -1.17528  -1.14132  -0.81707  -0.73817  -0.71658
 Alpha  occ. eigenvalues --   -0.63607  -0.61771  -0.56998  -0.43590  -0.42197
 Alpha  occ. eigenvalues --   -0.36558
 Alpha virt. eigenvalues --    0.02345   0.03491   0.04342   0.05655   0.06183
 Alpha virt. eigenvalues --    0.08915   0.11227   0.12263   0.12572   0.13152
 Alpha virt. eigenvalues --    0.13732   0.14326   0.15627   0.17105   0.17378

 Mulliken charges:
               1
     1  C    0.448333
     2  N   -0.286540
     3  N   -0.249181
     4  N   -0.625526
     5  H    0.184828
     6  H    0.101950
     7  H    0.143328
     8  H    0.133368
     9  H    0.149440
 Sum of Mulliken charges =   0.00000

 Dipole moment (field-independent basis, Debye):
    X=             -0.7629    Y=             -2.9598    Z=             -0.0104  Tot=              3.0566
 Quadrupole moment (field-independent basis, Debye-Ang):
   XX=            -17.7610   YY=            -26.6651   ZZ=            -27.2686
   XY=             -0.9952   XZ=              2.8783   YZ=              0.5199

  Exact polarizability:      39.296      -2.096      44.654      -0.057       0.024      28.199
 Approx polarizability:      33.504      -1.776      38.140      -0.123      -0.019      27.414

 ESP charges:
               1
     1  C    0.938220
     2  N   -0.969558
     3  N   -0.980741
     4  N   -0.948944
     5  H    0.418586
     6  H    0.396815
     7  H    0.375249
     8  H    0.401567
     9  H    0.368805
 Sum of ESP charges =  -0.00000

                      1                      2                      3
                      A                      A                      A
 Frequencies --    369.2827               432.3307               518.9130
 Red. masses --      1.0392                 1.1037                 2.5384
 Frc consts  --      0.0835                 0.1215                 0.4027
 IR Inten    --     64.7398                17.1024                 0.6282
 Raman Activ --      0.0537                 0.5154                 0.5666

                      4                      5                      6
                      A                      A                      A
 Frequencies --    587.6490               612.5407               676.2526
 Red. masses --      3.0848                 1.2424                 1.2845
 Frc consts  --      0.6276                 0.2746                 0.3461
 IR Inten    --     17.1719               249.3592               181.9198
 Raman Activ --      0.7437                 1.1238                 0.7060

                      7                      8                      9
                      A                      A                      A
 Frequencies --    842.0897               880.1318              1005.3483
 Red. masses --      2.6893                 1.4019                 3.8940
 Frc consts  --      1.1236                 0.6398                 2.3189
 IR Inten    --     72.3791               129.7132                15.6510
 Raman Activ --      0.9956                 0.5963                13.7638

                     10                     11                     12
                      A                      A                      A
 Frequencies --   1185.6595              1228.6333              1292.1558
 Red. masses --      1.5051                 1.2445                 1.5594
 Frc consts  --      1.2466                 1.1068                 1.5341
 IR Inten    --     27.6431                58.7502                43.7130
 Raman Activ --      0.5961                 5.4557                 4.0693

                     13                     14                     15
                      A                      A                      A
 Frequencies --   1573.3095              1768.6477              1788.3502
 Red. masses --      2.6024                 1.3134                 1.2071
 Frc consts  --      3.7954                 2.4206                 2.2745
 IR Inten    --    146.1326                58.9728               151.3072
 Raman Activ --      0.6082                 5.0595                 2.2513

                     16                     17                     18
                      A                      A                      A
 Frequencies --   1873.0591              3752.6189              3783.3823
 Red. masses --      3.5287                 1.0757                 1.0479
 Frc consts  --      7.2941                 8.9250                 8.8373
 IR Inten    --    437.8409                 9.6026                37.1641
 Raman Activ --     24.2634                86.4150                52.2923

                     19                     20                     21
                      A                      A                      A
 Frequencies --   3789.2822              3889.7552              3894.1885
 Red. masses --      1.0489                 1.0996                 1.0997
 Frc consts  --      8.8734                 9.8026                 9.8253
 IR Inten    --     16.2063                37.3307                28.7322
 Raman Activ --    148.5870                38.0649                35.3944

 - Thermochemistry -
 -------------------
 Temperature   298.150 Kelvin.  Pressure   1.00000 Atm.
 Atom     1 has atomic number  6 and mass  12.00000

 Molecular mass:    59.04835 amu.
 Principal axes and moments of inertia in atomic units:
                           1         2         3
     Eigenvalues --   166.61755 173.60823 336.38767
           X            0.97210  -0.23325   0.02494
           Y            0.23320   0.97242   0.00462
           Z           -0.02533   0.00133   0.99968
 This molecule is an asymmetric top.
 Rotational symmetry number  1.
 Rotational temperatures (Kelvin)      0.51984     0.49890     0.25748
 Rotational constants (GHZ):          10.83164    10.39548     5.36506
 Zero-point vibrational energy     213794.1 (Joules/Mol)
                                   51.09801 (Kcal/Mol)
 Warning -- explicit consideration of   5 degrees of freedom as
           vibrations may cause significant error
 Vibrational temperatures:    531.32   622.03   746.60   845.50   881.31
          (Kelvin)            972.98  1211.58  1266.31  1446.47  1705.90
                             1767.73  1859.12  2263.64  2544.69  2573.04
                             2694.91  5399.18  5443.44  5451.93  5596.49
                             5602.87

 Zero-point correction=                           0.081430 (Hartree/Particle)
 Thermal correction to Energy=                    0.085749
 Thermal correction to Enthalpy=                  0.086693
 Thermal correction to Gibbs Free Energy=         0.055208
 Sum of electronic and zero-point Energies=           -204.135128
 Sum of electronic and thermal Energies=              -204.130810
 Sum of electronic and thermal Enthalpies=            -204.129865
 Sum of electronic and thermal Free Energies=         -204.161350

                     E (Thermal)             CV                S
                      KCal/Mol        Cal/Mol-Kelvin    Cal/Mol-Kelvin
 Total                   53.808             15.212             66.265
 Electronic               0.000              0.000              0.000
 Translational            0.889              2.981             38.148
 Rotational               0.889              2.981             23.791
 Vibrational             52.031              9.250              4.327
 Vibration     1          0.742              1.535              1.083
 Vibration     2          0.793              1.400              0.851
 Vibration     3          0.874              1.208              0.612
 Vibration     4          0.945              1.058              0.471
 Vibration     5          0.972              1.005              0.429

 Optimization completed.
    -- Stationary point found.
 Normal termination of Gaussian 16 at Sun Sep 28 21:12:35 2025.
