 Gaussian 16, Revision C.01,
 Gaussian 16:  ES64L-G16RevC.01  3-Jul-2019

 ----------------------------------------------------------------------
 #P MP2/aug-cc-pvtz Opt=tight density=MP2 Pop=(MK,Hirshfeld) iop(6/33=2
 ) iop(6/42=6) maxdisk=128GB
 ----------------------------------------------------------------------

 ---------
 butanoate
 ---------
 Symbolic Z-matrix:
 Charge = -1 Multiplicity = 1

 SCF Done:  E(RHF) =  -305.427629541     A.U. after   12 cycles
 E2 =    -0.1182073835D+01 EUMP2 =    -0.30660970337650D+03
 SCF Done:  E(RHF) =  -305.425385359     A.U. after   10 cycles
 E2 =    -0.1186715095D+01 EUMP2 =    -0.30661210045421D+03
 SCF Done:  E(RHF) =  -305.424965376     A.U. after   10 cycles
 E2 =    -0.1187193394D+01 EUMP2 =    -0.30661215877032D+03
 SCF Done:  E(RHF) =  -305.419468459     A.U. after   12 cycles
 E2 =    -0.1189241054D+01 EUMP2 =    -0.30660870951354D+03
 SCF Done:  E(RHF) =  -305.424925439     A.U. after    7 cycles
 E2 =    -0.1187242183D+01 EUMP2 =    -0.30661216762213D+03
 SCF Done:  E(RHF) =  -305.424934655     A.U. after    6 cycles
 E2 =    -0.1187233290D+01 EUMP2 =    -0.30661216794474D+03
 SCF Done:  E(RHF) =  -305.424937264     A.U. after    5 cycles
 E2 =    -0.1187230698D+01 EUMP2 =    -0.30661216796263D+03
 SCF Done:  E(RHF) =  -305.424936949     A.U. after    3 cycles
 E2 =    -0.1187230959D+01 EUMP2 =    -0.30661216790847D+03
 SCF Done:  E(RHF) =  -305.424936998     A.U. after    4 cycles
 E2 =    -0.1187230991D+01 EUMP2 =    -0.30661216798876D+03
 SCF Done:  E(RHF) =  -305.424936865     A.U. after    5 cycles
 E2 =    -0.1187231095D+01 EUMP2 =    -0.30661216796035D+03
 Optimization completed.
    -- Stationary point found.

                         Standard orientation:
 ---------------------------------------------------------------------
 Center     Atomic      Atomic             Coordinates (Angstroms)
 Number     Number       Type             X           Y           Z
 ---------------------------------------------------------------------
      1          6           0        0.154834   -0.578060    0.000023
      2          6           0       -1.285245    0.008371    0.000014
      3          8           0       -1.379075    1.265195    0.000066
      4          8           0       -2.203660   -0.854054   -0.000035
      5          6           0        1.274840    0.448696   -0.000063
      6          1           0        0.241203   -1.232603    0.873493
      7          1           0        0.241172   -1.232730   -0.873352
      8          1           0        1.160059    1.098275    0.869192
      9          1           0        1.160069    1.098125   -0.869434
     10          6           0        2.658402   -0.196628   -0.000005
     11          1           0        2.791375   -0.830527    0.879779
     12          1           0        3.459632    0.546738   -0.000070
     13          1           0        2.791379   -0.830685   -0.879676
 ---------------------------------------------------------------------

 The electronic state is 1-A.
 Alpha  occ. eigenvalues --  -20.29180 -20.28781 -11.13407 -11.09283 -11.07125
 Alpha  occ. eigenvalues --  -11.05363  -1.16260  -1.06333  -0.91664  -0.79475
 Alpha  occ. eigenvalues --   -0.66855  -0.52235  -0.49168  -0.45272  -0.42522
 Alpha  occ. eigenvalues --   -0.41121  -0.39511  -0.36265  -0.34411  -0.32907
 Alpha  occ. eigenvalues --   -0.30978  -0.20745  -0.19389  -0.19126
 Alpha virt. eigenvalues --    0.10603   0.12192   0.12482   0.14343   0.14994
 Alpha virt. eigenvalues --    0.15300   0.15762   0.19163   0.19456   0.20781
 Alpha virt. eigenvalues --    0.21910   0.22995   0.23515   0.24046   0.24294

 Mulliken charges:
               1
     1  C   -0.224725
     2  C    0.179598
     3  O   -0.721503
     4  O   -0.764315
     5  C   -0.367401
     6  H    0.250562
     7  H    0.250570
     8  H    0.270390
     9  H    0.270381
    10  C   -0.979620
    11  H    0.281420
    12  H    0.273219
    13  H    0.281423
 Sum of Mulliken charges =  -1.00000

 Dipole moment (field-independent basis, Debye):
    X=              7.7879    Y=             -0.8648    Z=             -0.0001  Tot=              7.8358
 Quadrupole moment (field-independent basis, Debye-Ang):
   XX=            -64.5099   YY=            -49.5733   ZZ=            -39.5249
   XY=             -0.1708   XZ=              0.0000   YZ=             -0.0003

 ESP charges:
               1
     1  C   -0.191878
     2  C    0.833837
     3  O   -0.814953
     4  O   -0.827590
     5  C    0.449217
     6  H   -0.009691
     7  H   -0.009695
     8  H   -0.092235
     9  H   -0.092243
    10  C   -0.413856
    11  H    0.063219
    12  H    0.042649
    13  H    0.063220
 Sum of ESP charges =  -1.00000

 Normal termination of Gaussian 16 at Tue Sep 30 18:13:37 2025.
