 Gaussian 16, Revision C.01,
 Gaussian 16:  ES64L-G16RevC.01  3-Jul-2019

 ----------------------------------------------------------------------
 #P HF/aug-cc-pvtz Opt=tight Pop=(MK,Hirshfeld) iop(6/33=2) iop(6/42=6)
  maxdisk=128GB
 ----------------------------------------------------------------------

 -------
 acetate
 -------
 Symbolic Z-matrix:
 Charge = -1 Multiplicity = 1

 SCF Done:  E(RHF) =  -227.330758771     A.U. after   12 cycles
 SCF Done:  E(RHF) =  -227.330758737     A.U. after    6 cycles
 SCF Done:  E(RHF) =  -227.330758771     A.U. after    6 cycles
 Optimization completed.
    -- Stationary point found.

                         Standard orientation:
 ---------------------------------------------------------------------
 Center     Atomic      Atomic             Coordinates (Angstroms)
 Number     Number       Type             X           Y           Z
 ---------------------------------------------------------------------
      1          6           0        1.336280    0.000027   -0.005111
      2          6           0       -0.209701    0.000001   -0.009574
      3          8           0       -0.743127    1.110891    0.001764
      4          8           0       -0.743071   -1.110920    0.001742
      5          1           0        1.727510    0.890256   -0.484035
      6          1           0        1.675076   -0.000151    1.028417
      7          1           0        1.727528   -0.890038   -0.484329
 ---------------------------------------------------------------------

 The electronic state is 1-A.
 Alpha  occ. eigenvalues --  -20.27989 -20.27986 -11.11936 -11.03662  -1.17374
 Alpha  occ. eigenvalues --   -1.06883  -0.79020  -0.50672  -0.41907  -0.41601
 Alpha  occ. eigenvalues --   -0.41218  -0.36180  -0.32133  -0.19988  -0.18904
 Alpha  occ. eigenvalues --   -0.18810
 Alpha virt. eigenvalues --    0.13328   0.14394   0.14536   0.18516   0.22077
 Alpha virt. eigenvalues --    0.22910   0.22940   0.24953   0.25211   0.26787
 Alpha virt. eigenvalues --    0.30881   0.32946   0.33258   0.35895   0.36270

 Mulliken charges:
               1
     1  C   -0.647976
     2  C    0.450223
     3  O   -0.779763
     4  O   -0.779778
     5  H    0.268366
     6  H    0.220583
     7  H    0.268346
 Sum of Mulliken charges =  -1.00000

 Dipole moment (field-independent basis, Debye):
    X=              4.0288    Y=              0.0001    Z=             -0.0170  Tot=              4.0288
 Quadrupole moment (field-independent basis, Debye-Ang):
   XX=            -32.0403   YY=            -35.9033   ZZ=            -25.3449
   XY=              0.0001   XZ=              0.0489   YZ=             -0.0001

 ESP charges:
               1
     1  C   -0.433035
     2  C    1.089753
     3  O   -0.912373
     4  O   -0.912380
     5  H    0.054504
     6  H    0.059021
     7  H    0.054509
 Sum of ESP charges =  -1.00000

 Normal termination of Gaussian 16 at Tue Sep 30 16:59:37 2025.
