 Gaussian 16, Revision C.01,
 Gaussian 16:  ES64L-G16RevC.01  3-Jul-2019

 ----------------------------------------------------------------------
 #P MP2/aug-cc-pvtz Opt=tight density=MP2 Pop=(MK,Hirshfeld) iop(6/33=2
 ) iop(6/42=6) maxdisk=128GB
 ----------------------------------------------------------------------

 -------------
 ethylammonium
 -------------
 Symbolic Z-matrix:
 Charge =  1 Multiplicity = 1

 SCF Done:  E(RHF) =  -134.675640634     A.U. after   11 cycles
 E2 =    -0.5768510109D+00 EUMP2 =    -0.13525249164465D+03
 SCF Done:  E(RHF) =  -134.674901327     A.U. after    8 cycles
 E2 =    -0.5782993741D+00 EUMP2 =    -0.13525320070148D+03
 SCF Done:  E(RHF) =  -134.674885479     A.U. after    7 cycles
 E2 =    -0.5783211913D+00 EUMP2 =    -0.13525320667057D+03
 SCF Done:  E(RHF) =  -134.674881113     A.U. after    6 cycles
 E2 =    -0.5783260477D+00 EUMP2 =    -0.13525320716059D+03
 SCF Done:  E(RHF) =  -134.674883028     A.U. after    5 cycles
 E2 =    -0.5783241415D+00 EUMP2 =    -0.13525320716936D+03
 Optimization completed.
    -- Stationary point found.

                         Standard orientation:
 ---------------------------------------------------------------------
 Center     Atomic      Atomic             Coordinates (Angstroms)
 Number     Number       Type             X           Y           Z
 ---------------------------------------------------------------------
      1          7           0       -1.164972   -0.351761    0.000000
      2          6           0        0.000000    0.615246    0.000000
      3          1           0       -2.064688    0.132381    0.000000
      4          1           0       -1.133163   -0.956145    0.823671
      5          1           0       -1.133163   -0.956145   -0.823671
      6          1           0       -0.120630    1.233980    0.885453
      7          1           0       -0.120630    1.233980   -0.885453
      8          6           0        1.300974   -0.153244    0.000000
      9          1           0        1.397396   -0.776344    0.888489
     10          1           0        2.126443    0.554953    0.000000
     11          1           0        1.397396   -0.776344   -0.888489
 ---------------------------------------------------------------------

 The electronic state is 1-A'.
 Alpha  occ. eigenvalues --  -15.89751 -11.48510 -11.40354  -1.51661  -1.22731
 Alpha  occ. eigenvalues --   -1.06443  -0.97746  -0.96606  -0.85559  -0.80732
 Alpha  occ. eigenvalues --   -0.73167  -0.71796  -0.69978
 Alpha virt. eigenvalues --   -0.11897  -0.08343  -0.08317  -0.07567  -0.04843
 Alpha virt. eigenvalues --   -0.04634  -0.04218  -0.03953  -0.03450  -0.02377
 Alpha virt. eigenvalues --    0.00239   0.00440   0.00727   0.01023   0.02289

 Mulliken charges:
               1
     1  N    0.124146
     2  C   -0.350718
     3  H    0.136009
     4  H    0.161376
     5  H    0.161376
     6  H    0.355332
     7  H    0.355332
     8  C   -0.954390
     9  H    0.325010
    10  H    0.361516
    11  H    0.325010
 Sum of Mulliken charges =   1.00000

 Dipole moment (field-independent basis, Debye):
    X=             -3.6931    Y=             -0.9812    Z=              0.0000  Tot=              3.8212
 Quadrupole moment (field-independent basis, Debye-Ang):
   XX=             -9.2577   YY=            -15.7309   ZZ=            -16.5223
   XY=              2.0210   XZ=             -0.0000   YZ=             -0.0000

 ESP charges:
               1
     1  N   -0.565685
     2  C    0.199150
     3  H    0.379736
     4  H    0.379772
     5  H    0.379772
     6  H    0.086018
     7  H    0.086018
     8  C   -0.396243
     9  H    0.141591
    10  H    0.168280
    11  H    0.141591
 Sum of ESP charges =   1.00000

 Normal termination of Gaussian 16 at Tue Sep 30 17:06:32 2025.
