 Gaussian 16, Revision C.01,
 Gaussian 16:  ES64L-G16RevC.01  3-Jul-2019

 ----------------------------------------------------------------------
 #P MP2/aug-cc-pvtz Opt=tight density=MP2 Pop=(MK,Hirshfeld) iop(6/33=2
 ) iop(6/42=6) maxdisk=128GB
 ----------------------------------------------------------------------

 -------------------
 1-methylimidazolium
 -------------------
 Symbolic Z-matrix:
 Charge =  1 Multiplicity = 1

 SCF Done:  E(RHF) =  -264.332102605     A.U. after   12 cycles
 E2 =    -0.1053723468D+01 EUMP2 =    -0.26538582607360D+03
 SCF Done:  E(RHF) =  -264.329458511     A.U. after   10 cycles
 E2 =    -0.1059183998D+01 EUMP2 =    -0.26538864250821D+03
 SCF Done:  E(RHF) =  -264.328879604     A.U. after    9 cycles
 E2 =    -0.1059904302D+01 EUMP2 =    -0.26538878390611D+03
 SCF Done:  E(RHF) =  -264.328742233     A.U. after    8 cycles
 E2 =    -0.1060056430D+01 EUMP2 =    -0.26538879866268D+03
 SCF Done:  E(RHF) =  -264.328774990     A.U. after    6 cycles
 E2 =    -0.1060024698D+01 EUMP2 =    -0.26538879968767D+03
 SCF Done:  E(RHF) =  -264.328788058     A.U. after    6 cycles
 E2 =    -0.1060011755D+01 EUMP2 =    -0.26538879981302D+03
 SCF Done:  E(RHF) =  -264.328787243     A.U. after    4 cycles
 E2 =    -0.1060012527D+01 EUMP2 =    -0.26538879976960D+03
 SCF Done:  E(RHF) =  -264.328786698     A.U. after    3 cycles
 E2 =    -0.1060013154D+01 EUMP2 =    -0.26538879985282D+03
 SCF Done:  E(RHF) =  -264.328786519     A.U. after    5 cycles
 E2 =    -0.1060013196D+01 EUMP2 =    -0.26538879971487D+03
 SCF Done:  E(RHF) =  -264.328786661     A.U. after    3 cycles
 E2 =    -0.1060013146D+01 EUMP2 =    -0.26538879980677D+03
 SCF Done:  E(RHF) =  -264.328786841     A.U. after    3 cycles
 E2 =    -0.1060012919D+01 EUMP2 =    -0.26538879976067D+03
 SCF Done:  E(RHF) =  -264.328786566     A.U. after    5 cycles
 E2 =    -0.1060013144D+01 EUMP2 =    -0.26538879971041D+03
 Optimization completed.
    -- Stationary point found.

                         Standard orientation:
 ---------------------------------------------------------------------
 Center     Atomic      Atomic             Coordinates (Angstroms)
 Number     Number       Type             X           Y           Z
 ---------------------------------------------------------------------
      1          7           0        0.643733   -1.419211    0.000000
      2          6           0       -0.725479   -1.445227    0.000000
      3          6           0       -1.132739   -0.138035    0.000000
      4          7           0       -0.000000    0.638882    0.000000
      5          6           0        1.076025   -0.151781    0.000000
      6          6           0        0.024027    2.105349    0.000000
      7          1           0       -1.289009   -2.360739    0.000000
      8          1           0       -2.119547    0.290029    0.000000
      9          1           0        2.101780    0.172806    0.000000
     10          1           0       -0.479028    2.465959    0.892147
     11          1           0       -0.479028    2.465959   -0.892147
     12          1           0        1.057919    2.435017    0.000000
     13          1           0        1.249784   -2.228560    0.000000
 ---------------------------------------------------------------------

 The electronic state is 1-A'.
 Alpha  occ. eigenvalues --  -15.84141 -15.83787 -11.53544 -11.46609 -11.46047
 Alpha  occ. eigenvalues --  -11.44680  -1.58536  -1.43347  -1.23859  -1.17504
 Alpha  occ. eigenvalues --   -1.05047  -1.01307  -0.97163  -0.85176  -0.84845
 Alpha  occ. eigenvalues --   -0.82027  -0.81216  -0.78557  -0.76303  -0.73889
 Alpha  occ. eigenvalues --   -0.62764  -0.53225
 Alpha virt. eigenvalues --   -0.08970  -0.07450  -0.07285  -0.06782  -0.04787
 Alpha virt. eigenvalues --   -0.04676  -0.04249  -0.03687  -0.03415  -0.01724
 Alpha virt. eigenvalues --   -0.01552  -0.01118  -0.00982   0.00076   0.00490

 Mulliken charges:
               1
     1  N   -0.195876
     2  C   -0.298930
     3  C   -0.583063
     4  N    0.336317
     5  C   -0.479778
     6  C   -0.848470
     7  H    0.595620
     8  H    0.557535
     9  H    0.627200
    10  H    0.358169
    11  H    0.358169
    12  H    0.381617
    13  H    0.191491
 Sum of Mulliken charges =   1.00000

 Dipole moment (field-independent basis, Debye):
    X=              1.1360    Y=             -0.6681    Z=              0.0000  Tot=              1.3179
 Quadrupole moment (field-independent basis, Debye-Ang):
   XX=            -23.2078   YY=            -15.4575   ZZ=            -35.9938
   XY=             -1.7631   XZ=              0.0000   YZ=              0.0000

 ESP charges:
               1
     1  N   -0.160578
     2  C   -0.096742
     3  C   -0.164955
     4  N    0.269541
     5  C   -0.078082
     6  C   -0.414201
     7  H    0.231319
     8  H    0.227621
     9  H    0.223489
    10  H    0.196769
    11  H    0.196769
    12  H    0.191704
    13  H    0.377344
 Sum of ESP charges =   1.00000

 Normal termination of Gaussian 16 at Tue Sep 30 18:20:34 2025.
