 Gaussian 16, Revision C.01,
 Gaussian 16:  ES64L-G16RevC.01  3-Jul-2019

 ----------------------------------------------------------------------
 #P HF/aug-cc-pvtz Opt=(Redundant, calcall, verytight) symm=(loose,foll
 ow) Pop=(MK,Hirshfeld,ReadRadii) iop(6/33=2) iop(6/42=6) Polar Freq ma
 xdisk=128GB
 ----------------------------------------------------------------------

 -----------
 guanidinium
 -----------
 Symbolic Z-matrix:
 Charge =  1 Multiplicity = 1

 SCF Done:  E(RHF) =  -204.611978637     A.U. after    9 cycles
 SCF Done:  E(RHF) =  -204.617618061     A.U. after    8 cycles
 SCF Done:  E(RHF) =  -204.617635033     A.U. after    6 cycles
 SCF Done:  E(RHF) =  -204.617635039     A.U. after    3 cycles
 Optimization completed.
    -- Stationary point found.
 Normal termination of Gaussian 16 at Sun Sep 28 20:55:11 2025.

 ----------------------------------------------------------------------
 #P Geom=AllCheck Guess=TCheck SCRF=Check Test GenChk RHF/Aug-CC-pVTZ F
 req
 ----------------------------------------------------------------------

 Structure from the checkpoint file:  "water19.chk"
 -----------
 guanidinium
 -----------
 Charge =  1 Multiplicity = 1

                         Standard orientation:
 ---------------------------------------------------------------------
 Center     Atomic      Atomic             Coordinates (Angstroms)
 Number     Number       Type             X           Y           Z
 ---------------------------------------------------------------------
      1          6           0        0.000000    0.000000    0.000000
      2          7           0        0.000000    1.318601   -0.000000
      3          7           0       -1.141942   -0.659301   -0.000000
      4          7           0        1.141942   -0.659301   -0.000000
      5          1           0       -1.164526   -1.651067   -0.000000
      6          1           0       -2.012129   -0.182976    0.000000
      7          1           0        0.847603    1.834043   -0.000000
      8          1           0       -0.847603    1.834043   -0.000000
      9          1           0        2.012129   -0.182976    0.000000
     10          1           0        1.164526   -1.651067    0.000000
 ---------------------------------------------------------------------

 SCF Done:  E(RHF) =  -204.617635039     A.U. after    1 cycles

 Unable to determine electronic state:  an orbital has unidentified symmetry.
 Alpha  occ. eigenvalues --  -15.79581 -15.79581 -15.79577 -11.60514  -1.56230
 Alpha  occ. eigenvalues --   -1.41229  -1.41229  -1.08860  -0.99620  -0.99620
 Alpha  occ. eigenvalues --   -0.87927  -0.87755  -0.87755  -0.82549  -0.63526
 Alpha  occ. eigenvalues --   -0.63526
 Alpha virt. eigenvalues --   -0.10365  -0.07980  -0.07980  -0.05672  -0.05261
 Alpha virt. eigenvalues --   -0.05261  -0.02207  -0.01664  -0.00766  -0.00343
 Alpha virt. eigenvalues --    0.00017   0.00017   0.00333   0.00333   0.02126

 Mulliken charges:
               1
     1  C    0.727557
     2  N   -0.202899
     3  N   -0.202899
     4  N   -0.202899
     5  H    0.146857
     6  H    0.146857
     7  H    0.146857
     8  H    0.146857
     9  H    0.146857
    10  H    0.146857
 Sum of Mulliken charges =   1.00000

 Dipole moment (field-independent basis, Debye):
    X=              0.0000    Y=              0.0000    Z=             -0.0000  Tot=              0.0000
 Quadrupole moment (field-independent basis, Debye-Ang):
   XX=            -10.1286   YY=            -10.1286   ZZ=            -26.1776
   XY=             -0.0000   XZ=             -0.0000   YZ=             -0.0000

  Exact polarizability:      36.264       0.000      36.264      -0.000      -0.000      22.448
 Approx polarizability:      31.185       0.000      31.185      -0.000      -0.000      22.260

 ESP charges:
               1
     1  C    1.090067
     2  N   -0.988756
     3  N   -0.990692
     4  N   -0.992854
     5  H    0.479623
     6  H    0.480722
     7  H    0.477778
     8  H    0.480394
     9  H    0.482737
    10  H    0.480981
 Sum of ESP charges =   1.00000

                      1                      2                      3
                     A1"                    E"                     E"
 Frequencies --    180.9926               360.5867               360.5867
 Red. masses --      1.0078                 1.2532                 1.2532
 Frc consts  --      0.0195                 0.0960                 0.0960
 IR Inten    --      0.0000                 0.0000                 0.0000
 Raman Activ --      0.0000                 0.0102                 0.0102

                      4                      5                      6
                     A2"                    ?A                     ?A
 Frequencies --    481.1005               549.2813               549.2813
 Red. masses --      1.1471                 2.2679                 2.2679
 Frc consts  --      0.1564                 0.4031                 0.4031
 IR Inten    --    753.4466                 0.0257                 0.0257
 Raman Activ --      0.0000                 0.8180                 0.8180

                      7                      8                      9
                     E"                     E"                     A2"
 Frequencies --    600.3834               600.3834               808.4231
 Red. masses --      1.0483                 1.0483                 9.1965
 Frc consts  --      0.2226                 0.2226                 3.5412
 IR Inten    --      0.0000                 0.0000                 9.9892
 Raman Activ --      0.1472                 0.1472                 0.0000

                     10                     11                     12
                     ?B                     ?B                     ?A
 Frequencies --   1089.7863              1125.0707              1200.8005
 Red. masses --      4.4652                 1.1791                 1.5728
 Frc consts  --      3.1244                 0.8793                 1.3362
 IR Inten    --      0.0000                 0.0000                14.3077
 Raman Activ --     20.7414                 0.0000                 0.2426

                     13                     14                     15
                     ?A                     ?A                     ?A
 Frequencies --   1200.8005              1709.4772              1709.4772
 Red. masses --      1.5728                 1.8977                 1.8977
 Frc consts  --      1.3362                 3.2675                 3.2675
 IR Inten    --     14.3077                71.6651                71.6651
 Raman Activ --      0.2426                 0.2288                 0.2288

                     16                     17                     18
                     ?A                     ?A                     ?B
 Frequencies --   1828.6704              1828.6704              1844.7087
 Red. masses --      1.7633                 1.7633                 1.1361
 Frc consts  --      3.4741                 3.4741                 2.2778
 IR Inten    --    467.2818               467.2818                 0.0000
 Raman Activ --      4.6773                 4.6773                 1.7066

                     19                     20                     21
                     ?A                     ?A                     ?B
 Frequencies --   3797.4226              3797.4226              3816.1955
 Red. masses --      1.0462                 1.0462                 1.0507
 Frc consts  --      8.8890                 8.8890                 9.0159
 IR Inten    --    239.8818               239.8818                 0.0000
 Raman Activ --      1.0093                 1.0093               203.1776

                     22                     23                     24
                     ?B                     ?A                     ?A
 Frequencies --   3920.6763              3925.7355              3925.7355
 Red. masses --      1.1065                 1.1087                 1.1087
 Frc consts  --     10.0212                10.0671                10.0671
 IR Inten    --      0.0000               198.3178               198.3178
 Raman Activ --      0.0000                36.3466                36.3466

 - Thermochemistry -
 -------------------
 Temperature   298.150 Kelvin.  Pressure   1.00000 Atm.
 Atom     1 has atomic number  6 and mass  12.00000

 Molecular mass:    60.05617 amu.
 Principal axes and moments of inertia in atomic units:
                           1         2         3
     Eigenvalues --   174.49356 174.49356 348.98712
           X            0.49047   0.87146   0.00000
           Y            0.87146  -0.49047   0.00000
           Z            0.00000   0.00000   1.00000
 This molecule is an oblate symmetric top.
 Rotational symmetry number  6.
 Rotational temperatures (Kelvin)      0.49637     0.49637     0.24819
 Rotational constants (GHZ):          10.34274    10.34274     5.17137
 Zero-point vibrational energy     246500.5 (Joules/Mol)
                                   58.91504 (Kcal/Mol)
 Warning -- explicit consideration of   8 degrees of freedom as
           vibrations may cause significant error
 Vibrational temperatures:    260.41   518.80   518.80   692.20   790.29
          (Kelvin)            790.29   863.82   863.82  1163.14  1567.96
                             1618.73  1727.68  1727.68  2459.56  2459.56
                             2631.05  2631.05  2654.12  5463.64  5463.64
                             5490.65  5640.98  5648.26  5648.26

 Zero-point correction=                           0.093887 (Hartree/Particle)
 Thermal correction to Energy=                    0.099114
 Thermal correction to Enthalpy=                  0.100058
 Thermal correction to Gibbs Free Energy=         0.068608
 Sum of electronic and zero-point Energies=           -204.523748
 Sum of electronic and thermal Energies=              -204.518521
 Sum of electronic and thermal Enthalpies=            -204.517577
 Sum of electronic and thermal Free Energies=         -204.549027

                     E (Thermal)             CV                S
                      KCal/Mol        Cal/Mol-Kelvin    Cal/Mol-Kelvin
 Total                   62.195             18.302             66.192
 Electronic               0.000              0.000              0.000
 Translational            0.889              2.981             38.198
 Rotational               0.889              2.981             20.318
 Vibrational             60.418             12.340              7.676
 Vibration     1          0.630              1.866              2.318
 Vibration     2          0.735              1.553              1.120
 Vibration     3          0.735              1.553              1.120
 Vibration     4          0.837              1.292              0.707
 Vibration     5          0.905              1.141              0.546
 Vibration     6          0.905              1.141              0.546
 Vibration     7          0.959              1.031              0.449
 Vibration     8          0.959              1.031              0.449

 Optimization completed.
    -- Stationary point found.
 Normal termination of Gaussian 16 at Sun Sep 28 20:58:25 2025.
