 Gaussian 16, Revision C.01,
 Gaussian 16:  ES64L-G16RevC.01  3-Jul-2019

 ----------------------------------------------------------------------
 #P HF/aug-cc-pvtz Opt=tight Pop=(MK,Hirshfeld) iop(6/33=2) iop(6/42=6)
  maxdisk=128GB
 ----------------------------------------------------------------------

 -----------
 guanidinium
 -----------
 Symbolic Z-matrix:
 Charge =  1 Multiplicity = 1

 SCF Done:  E(RHF) =  -204.617635039     A.U. after    9 cycles

 The electronic state is 1-A1.
 Alpha  occ. eigenvalues --  -15.79581 -15.79581 -15.79577 -11.60514  -1.56230
 Alpha  occ. eigenvalues --   -1.41230  -1.41229  -1.08860  -0.99620  -0.99620
 Alpha  occ. eigenvalues --   -0.87927  -0.87755  -0.87755  -0.82549  -0.63526
 Alpha  occ. eigenvalues --   -0.63526
 Alpha virt. eigenvalues --   -0.10365  -0.07980  -0.07980  -0.05672  -0.05261
 Alpha virt. eigenvalues --   -0.05261  -0.02207  -0.01664  -0.00766  -0.00343
 Alpha virt. eigenvalues --    0.00017   0.00017   0.00333   0.00333   0.02126

 Mulliken charges:
               1
     1  C    0.727560
     2  N   -0.202897
     3  N   -0.202902
     4  N   -0.202902
     5  H    0.146859
     6  H    0.146856
     7  H    0.146854
     8  H    0.146854
     9  H    0.146856
    10  H    0.146859
 Sum of Mulliken charges =   1.00000

 Dipole moment (field-independent basis, Debye):
    X=             -0.0000    Y=              0.0000    Z=             -0.0000  Tot=              0.0000
 Quadrupole moment (field-independent basis, Debye-Ang):
   XX=            -26.1776   YY=            -10.1285   ZZ=            -10.1286
   XY=              0.0000   XZ=              0.0000   YZ=              0.0000

 ESP charges:
               1
     1  C    1.133060
     2  N   -1.006752
     3  N   -1.006330
     4  N   -1.006330
     5  H    0.480991
     6  H    0.481091
     7  H    0.481094
     8  H    0.481094
     9  H    0.481091
    10  H    0.480991
 Sum of ESP charges =   1.00000

 Optimization completed.
    -- Stationary point found.

                         Standard orientation:
 ---------------------------------------------------------------------
 Center     Atomic      Atomic             Coordinates (Angstroms)
 Number     Number       Type             X           Y           Z
 ---------------------------------------------------------------------
      1          6           0       -0.000000    0.000000    0.000001
      2          7           0       -0.000000    0.000000    1.318601
      3          7           0        0.000000    1.141940   -0.659299
      4          7           0       -0.000000   -1.141940   -0.659299
      5          1           0        0.000000    1.164530   -1.651069
      6          1           0        0.000000    2.012130   -0.182979
      7          1           0        0.000000   -0.847600    1.834041
      8          1           0        0.000000    0.847600    1.834041
      9          1           0       -0.000000   -2.012130   -0.182979
     10          1           0       -0.000000   -1.164530   -1.651069
 ---------------------------------------------------------------------

 Normal termination of Gaussian 16 at Tue Sep 30 16:59:10 2025.
