 Gaussian 16, Revision C.01,
 Gaussian 16:  ES64L-G16RevC.01  3-Jul-2019

 ----------------------------------------------------------------------
 #P MP2/aug-cc-pvtz Opt=tight density=MP2 Pop=(MK,Hirshfeld) iop(6/33=2
 ) iop(6/42=6) maxdisk=128GB
 ----------------------------------------------------------------------

 --------
 ammonium
 --------
 Symbolic Z-matrix:
 Charge =  1 Multiplicity = 1

 SCF Done:  E(RHF) =  -56.5648490144     A.U. after    8 cycles
 E2 =    -0.2308370850D+00 EUMP2 =    -0.56795686099346D+02
 SCF Done:  E(RHF) =  -56.5643697029     A.U. after    7 cycles
 E2 =    -0.2317817478D+00 EUMP2 =    -0.56796151450718D+02
 SCF Done:  E(RHF) =  -56.5643598289     A.U. after    5 cycles
 E2 =    -0.2317916695D+00 EUMP2 =    -0.56796151498349D+02
 Optimization completed.
    -- Stationary point found.

                         Standard orientation:
 ---------------------------------------------------------------------
 Center     Atomic      Atomic             Coordinates (Angstroms)
 Number     Number       Type             X           Y           Z
 ---------------------------------------------------------------------
      1          1           0        0.590035    0.590035    0.590035
      2          7           0        0.000000    0.000000    0.000000
      3          1           0       -0.590035   -0.590035    0.590035
      4          1           0       -0.590035    0.590035   -0.590035
      5          1           0        0.590035   -0.590035   -0.590035
 ---------------------------------------------------------------------

 The electronic state is 1-A1.
 Alpha  occ. eigenvalues --  -15.93948  -1.54740  -1.00011  -1.00011  -1.00011
 Alpha virt. eigenvalues --   -0.14707  -0.09134  -0.09134  -0.09134  -0.02807
 Alpha virt. eigenvalues --   -0.01786  -0.01786  -0.01786   0.01023   0.01023
 Alpha virt. eigenvalues --    0.01023   0.02098   0.02098   0.14708   0.16601

 Mulliken charges:
               1
     1  H    0.247541
     2  N    0.009838
     3  H    0.247541
     4  H    0.247541
     5  H    0.247541
 Sum of Mulliken charges =   1.00000

 Dipole moment (field-independent basis, Debye):
    X=             -0.0000    Y=             -0.0000    Z=             -0.0000  Tot=              0.0000
 Quadrupole moment (field-independent basis, Debye-Ang):
   XX=             -4.3503   YY=             -4.3503   ZZ=             -4.3503
   XY=             -0.0000   XZ=             -0.0000   YZ=              0.0000

 ESP charges:
               1
     1  H    0.458070
     2  N   -0.832361
     3  H    0.458111
     4  H    0.458111
     5  H    0.458070
 Sum of ESP charges =   1.00000

 Normal termination of Gaussian 16 at Tue Sep 30 16:59:06 2025.
