 Gaussian 16, Revision C.01,
 Gaussian 16:  ES64L-G16RevC.01  3-Jul-2019

 ----------------------------------------------------------------------
 #P HF/aug-cc-pvtz Opt=tight Pop=(MK,Hirshfeld) iop(6/33=2) iop(6/42=6)
  maxdisk=128GB
 ----------------------------------------------------------------------

 --------
 ammonium
 --------
 Symbolic Z-matrix:
 Charge =  1 Multiplicity = 1

 SCF Done:  E(RHF) =  -56.5648490144     A.U. after    8 cycles

 The electronic state is 1-A1.
 Alpha  occ. eigenvalues --  -15.93747  -1.55656  -1.00764  -1.00764  -1.00764
 Alpha virt. eigenvalues --   -0.14654  -0.09143  -0.09143  -0.09143  -0.02746
 Alpha virt. eigenvalues --   -0.01728  -0.01728  -0.01728   0.01116   0.01116
 Alpha virt. eigenvalues --    0.01116   0.02119   0.02119   0.14872   0.16627

 Mulliken charges:
               1
     1  H    0.236301
     2  N    0.054797
     3  H    0.236301
     4  H    0.236301
     5  H    0.236301
 Sum of Mulliken charges =   1.00000

 Dipole moment (field-independent basis, Debye):
    X=              0.0000    Y=              0.0000    Z=             -0.0000  Tot=              0.0000
 Quadrupole moment (field-independent basis, Debye-Ang):
   XX=             -4.3090   YY=             -4.3090   ZZ=             -4.3090
   XY=             -0.0000   XZ=              0.0000   YZ=              0.0000

 ESP charges:
               1
     1  H    0.459571
     2  N   -0.838306
     3  H    0.459583
     4  H    0.459583
     5  H    0.459571
 Sum of ESP charges =   1.00000

 Optimization completed.
    -- Stationary point found.

                         Standard orientation:
 ---------------------------------------------------------------------
 Center     Atomic      Atomic             Coordinates (Angstroms)
 Number     Number       Type             X           Y           Z
 ---------------------------------------------------------------------
      1          1           0        0.583090    0.583090    0.583090
      2          7           0        0.000000    0.000000    0.000000
      3          1           0       -0.583090   -0.583090    0.583090
      4          1           0       -0.583090    0.583090   -0.583090
      5          1           0        0.583090   -0.583090   -0.583090
 ---------------------------------------------------------------------

 Normal termination of Gaussian 16 at Tue Sep 30 16:58:56 2025.
