 Gaussian 16, Revision C.01,
 Gaussian 16:  ES64L-G16RevC.01  3-Jul-2019

 ----------------------------------------------------------------------
 #P MP2/aug-cc-pvtz Opt=tight density=MP2 Pop=(MK,Hirshfeld) iop(6/33=2
 ) iop(6/42=6) maxdisk=128GB
 ----------------------------------------------------------------------

 -----------
 imidazolium
 -----------
 Symbolic Z-matrix:
 Charge =  1 Multiplicity = 1

 SCF Done:  E(RHF) =  -225.281747293     A.U. after   11 cycles
 E2 =    -0.8765570387D+00 EUMP2 =    -0.22615830433160D+03
 SCF Done:  E(RHF) =  -225.279174791     A.U. after    9 cycles
 E2 =    -0.8818860005D+00 EUMP2 =    -0.22616106079164D+03
 SCF Done:  E(RHF) =  -225.278571889     A.U. after    9 cycles
 E2 =    -0.8826373972D+00 EUMP2 =    -0.22616120928670D+03
 SCF Done:  E(RHF) =  -225.278430067     A.U. after    8 cycles
 E2 =    -0.8827940174D+00 EUMP2 =    -0.22616122408476D+03
 SCF Done:  E(RHF) =  -225.278479807     A.U. after    7 cycles
 E2 =    -0.8827454990D+00 EUMP2 =    -0.22616122530599D+03
 SCF Done:  E(RHF) =  -225.278492197     A.U. after    5 cycles
 E2 =    -0.8827332611D+00 EUMP2 =    -0.22616122545789D+03
 SCF Done:  E(RHF) =  -225.278491277     A.U. after    4 cycles
 E2 =    -0.8827340718D+00 EUMP2 =    -0.22616122534854D+03
 SCF Done:  E(RHF) =  -225.278491066     A.U. after    3 cycles
 E2 =    -0.8827343553D+00 EUMP2 =    -0.22616122542177D+03
 Optimization completed.
    -- Stationary point found.

                         Standard orientation:
 ---------------------------------------------------------------------
 Center     Atomic      Atomic             Coordinates (Angstroms)
 Number     Number       Type             X           Y           Z
 ---------------------------------------------------------------------
      1          6           0        0.000000    0.684119   -0.972539
      2          6           0       -0.000000   -0.684119   -0.972539
      3          7           0        0.000000   -1.070775    0.344034
      4          6           0        0.000000    0.000000    1.141733
      5          7           0        0.000000    1.070775    0.344034
      6          1           0        0.000000    1.389460   -1.783663
      7          1           0       -0.000000   -1.389460   -1.783663
      8          1           0        0.000000   -2.026228    0.676800
      9          1           0        0.000000    0.000000    2.217311
     10          1           0        0.000000    2.026228    0.676800
 ---------------------------------------------------------------------

 The electronic state is 1-A1.
 Alpha  occ. eigenvalues --  -15.85190 -15.85186 -11.55305 -11.47642 -11.47498
 Alpha  occ. eigenvalues --   -1.59771  -1.43515  -1.24835  -1.10052  -1.04895
 Alpha  occ. eigenvalues --   -0.99516  -0.89903  -0.84430  -0.83852  -0.81917
 Alpha  occ. eigenvalues --   -0.80579  -0.66800  -0.54439
 Alpha virt. eigenvalues --   -0.09742  -0.08125  -0.07668  -0.07096  -0.05271
 Alpha virt. eigenvalues --   -0.05138  -0.04510  -0.03446  -0.03421  -0.01064
 Alpha virt. eigenvalues --   -0.00973  -0.00265   0.00017   0.00083   0.00167

 Mulliken charges:
               1
     1  C   -0.335833
     2  C   -0.335833
     3  N    0.031014
     4  C   -0.533864
     5  N    0.031014
     6  H    0.581086
     7  H    0.581086
     8  H    0.186675
     9  H    0.607979
    10  H    0.186675
 Sum of Mulliken charges =   1.00000

 Dipole moment (field-independent basis, Debye):
    X=             -0.0000    Y=              0.0000    Z=              1.2759  Tot=              1.2759
 Quadrupole moment (field-independent basis, Debye-Ang):
   XX=            -30.2435   YY=            -12.7339   ZZ=            -16.8790
   XY=             -0.0000   XZ=             -0.0000   YZ=             -0.0000

 ESP charges:
               1
     1  C   -0.091531
     2  C   -0.091531
     3  N   -0.082866
     4  C   -0.032718
     5  N   -0.082866
     6  H    0.224516
     7  H    0.224516
     8  H    0.352674
     9  H    0.227130
    10  H    0.352674
 Sum of ESP charges =   1.00000

 Normal termination of Gaussian 16 at Tue Sep 30 17:12:51 2025.
