 Gaussian 16, Revision C.01,
 Gaussian 16:  ES64L-G16RevC.01  3-Jul-2019

 ----------------------------------------------------------------------
 #P HF/aug-cc-pvtz Opt=tight Pop=(MK,Hirshfeld) iop(6/33=2) iop(6/42=6)
  maxdisk=128GB
 ----------------------------------------------------------------------

 -------
 formate
 -------
 Symbolic Z-matrix:
 Charge = -1 Multiplicity = 1

 SCF Done:  E(RHF) =  -188.276020407     A.U. after   11 cycles

 The electronic state is 1-A1.
 Alpha  occ. eigenvalues --  -20.28273 -20.28269 -11.11225  -1.17014  -1.07005
 Alpha  occ. eigenvalues --   -0.55215  -0.43452  -0.39188  -0.35017  -0.20774
 Alpha  occ. eigenvalues --   -0.18754  -0.18514
 Alpha virt. eigenvalues --    0.14455   0.21294   0.21350   0.21670   0.28189
 Alpha virt. eigenvalues --    0.31771   0.32769   0.33769   0.36797   0.37102
 Alpha virt. eigenvalues --    0.39188   0.42003   0.42586   0.45840   0.50157

 Mulliken charges:
               1
     1  O   -0.683309
     2  O   -0.683309
     3  C   -0.014870
     4  H    0.381488
 Sum of Mulliken charges =  -1.00000

 Dipole moment (field-independent basis, Debye):
    X=              0.0000    Y=             -0.0000    Z=              1.7308  Tot=              1.7308
 Quadrupole moment (field-independent basis, Debye-Ang):
   XX=            -18.7541   YY=            -29.2702   ZZ=            -20.2328
   XY=             -0.0000   XZ=             -0.0000   YZ=             -0.0000

 ESP charges:
               1
     1  O   -0.869329
     2  O   -0.869329
     3  C    0.933955
     4  H   -0.195296
 Sum of ESP charges =  -1.00000

 Optimization completed.
    -- Stationary point found.

                         Standard orientation:
 ---------------------------------------------------------------------
 Center     Atomic      Atomic             Coordinates (Angstroms)
 Number     Number       Type             X           Y           Z
 ---------------------------------------------------------------------
      1          8           0        0.000000    1.115480   -0.205640
      2          8           0       -0.000000   -1.115480   -0.205640
      3          6           0        0.000000    0.000000    0.310060
      4          1           0        0.000000    0.000000    1.429880
 ---------------------------------------------------------------------

 Normal termination of Gaussian 16 at Tue Sep 30 16:58:56 2025.
