 Gaussian 16, Revision C.01,
 Gaussian 16:  ES64L-G16RevC.01  3-Jul-2019

 ----------------------------------------------------------------------
 #P MP2/gen Opt=tight density=MP2 Pop=(MK,Hirshfeld,ReadRadii) iop(6/33
 =2) iop(6/42=6) maxdisk=128GB
 ----------------------------------------------------------------------

 -------------
 potassium-ion
 -------------
 Symbolic Z-matrix:
 Charge =  1 Multiplicity = 1

 SCF Done:  E(RHF) =  -599.006030784     A.U. after    7 cycles
 E2 =     0.0000000000D+00 EUMP2 =    -0.59900603078437D+03

 The electronic state is 1-A1G.
 Alpha  occ. eigenvalues -- -133.75007 -14.70691 -11.73681 -11.73681 -11.73681
 Alpha  occ. eigenvalues --   -1.96401  -1.17083  -1.17083  -1.17083
 Alpha virt. eigenvalues --   -0.14702  -0.08230  -0.08230  -0.08230  -0.04566
 Alpha virt. eigenvalues --   -0.02188  -0.02188  -0.02188  -0.02188  -0.02188
 Alpha virt. eigenvalues --    0.20041   0.20041   0.20041   0.20041   0.20041

 Mulliken charges:
               1
     1  K    1.000000
 Sum of Mulliken charges =   1.00000

 Dipole moment (field-independent basis, Debye):
    X=              0.0000    Y=              0.0000    Z=              0.0000  Tot=              0.0000
 Quadrupole moment (field-independent basis, Debye-Ang):
   XX=             -8.7770   YY=             -8.7770   ZZ=             -8.7770
   XY=              0.0000   XZ=             -0.0000   YZ=              0.0000

 ESP charges:
               1
     1  K    1.000000
 Sum of ESP charges =   1.00000

 Optimization completed.
    -- Stationary point found.

                         Standard orientation:
 ---------------------------------------------------------------------
 Center     Atomic      Atomic             Coordinates (Angstroms)
 Number     Number       Type             X           Y           Z
 ---------------------------------------------------------------------
      1         19           0        0.000000    0.000000    0.000000
 ---------------------------------------------------------------------

 Normal termination of Gaussian 16 at Tue Sep 30 19:49:59 2025.
