 Gaussian 16, Revision C.01,
 Gaussian 16:  ES64L-G16RevC.01  3-Jul-2019

 ----------------------------------------------------------------------
 #P MP2/aug-cc-pvtz Opt=tight density=MP2 Pop=(MK,Hirshfeld) iop(6/33=2
 ) iop(6/42=6) maxdisk=128GB
 ----------------------------------------------------------------------

 ---------
 imidazole
 ---------
 Symbolic Z-matrix:
 Charge =  0 Multiplicity = 1

 SCF Done:  E(RHF) =  -224.900121903     A.U. after   13 cycles
 E2 =    -0.8909919061D+00 EUMP2 =    -0.22579111380889D+03
 SCF Done:  E(RHF) =  -224.897465832     A.U. after   10 cycles
 E2 =    -0.8963525260D+00 EUMP2 =    -0.22579381835773D+03
 SCF Done:  E(RHF) =  -224.897072663     A.U. after    9 cycles
 E2 =    -0.8968297311D+00 EUMP2 =    -0.22579390239390D+03
 SCF Done:  E(RHF) =  -224.896962740     A.U. after    8 cycles
 E2 =    -0.8969514669D+00 EUMP2 =    -0.22579391420700D+03
 SCF Done:  E(RHF) =  -224.897003489     A.U. after    7 cycles
 E2 =    -0.8969114198D+00 EUMP2 =    -0.22579391490840D+03
 SCF Done:  E(RHF) =  -224.897013882     A.U. after    6 cycles
 E2 =    -0.8969010863D+00 EUMP2 =    -0.22579391496805D+03
 SCF Done:  E(RHF) =  -224.897012812     A.U. after    4 cycles
 E2 =    -0.8969021626D+00 EUMP2 =    -0.22579391497423D+03
 Optimization completed.
    -- Stationary point found.

                         Standard orientation:
 ---------------------------------------------------------------------
 Center     Atomic      Atomic             Coordinates (Angstroms)
 Number     Number       Type             X           Y           Z
 ---------------------------------------------------------------------
      1          6           0        1.116838    0.305324    0.000000
      2          1           0        2.112516    0.711142    0.000000
      3          6           0        0.634531   -0.984441    0.000000
      4          1           0        1.201174   -1.899564    0.000000
      5          7           0       -0.738492   -0.989792    0.000000
      6          6           0       -1.090399    0.284811    0.000000
      7          1           0       -2.097918    0.664433    0.000000
      8          7           0        0.000000    1.101543    0.000000
      9          1           0       -0.012145    2.107567    0.000000
 ---------------------------------------------------------------------

 The electronic state is 1-A'.
 Alpha  occ. eigenvalues --  -15.62537 -15.54729 -11.29798 -11.26215 -11.24447
 Alpha  occ. eigenvalues --   -1.34214  -1.16768  -1.00684  -0.83056  -0.80077
 Alpha  occ. eigenvalues --   -0.75966  -0.60965  -0.60424  -0.59958  -0.57151
 Alpha  occ. eigenvalues --   -0.43805  -0.40162  -0.31973
 Alpha virt. eigenvalues --    0.02085   0.03443   0.04147   0.05225   0.07191
 Alpha virt. eigenvalues --    0.08499   0.10436   0.10584   0.10886   0.11146
 Alpha virt. eigenvalues --    0.11784   0.12679   0.13059   0.14125   0.15427

 Mulliken charges:
               1
     1  C   -0.521625
     2  H    0.547334
     3  C   -0.318169
     4  H    0.547921
     5  N   -0.413283
     6  C   -0.605930
     7  H    0.572789
     8  N    0.059904
     9  H    0.131060
 Sum of Mulliken charges =  -0.00000

 Dipole moment (field-independent basis, Debye):
    X=              1.2216    Y=              3.6317    Z=              0.0000  Tot=              3.8317
 Quadrupole moment (field-independent basis, Debye-Ang):
   XX=            -27.2681   YY=            -26.2749   ZZ=            -32.5226
   XY=             -3.4103   XZ=              0.0000   YZ=              0.0000

 ESP charges:
               1
     1  C   -0.304431
     2  H    0.188693
     3  C    0.147740
     4  H    0.093329
     5  N   -0.502621
     6  C    0.166821
     7  H    0.095156
     8  N   -0.172847
     9  H    0.288160
 Sum of ESP charges =  -0.00000

 Normal termination of Gaussian 16 at Tue Sep 30 17:13:25 2025.
