 Gaussian 16, Revision C.01,
 Gaussian 16:  ES64L-G16RevC.01  3-Jul-2019

 ----------------------------------------------------------------------
 #P MP2/aug-cc-pvtz Opt=tight density=MP2 Pop=(MK,Hirshfeld) iop(6/33=2
 ) iop(6/42=6) maxdisk=128GB
 ----------------------------------------------------------------------

 -----------
 guanidinium
 -----------
 Symbolic Z-matrix:
 Charge =  1 Multiplicity = 1

 SCF Done:  E(RHF) =  -204.617635039     A.U. after    9 cycles
 E2 =    -0.7827638073D+00 EUMP2 =    -0.20540039884631D+03
 SCF Done:  E(RHF) =  -204.616106135     A.U. after    8 cycles
 E2 =    -0.7856617323D+00 EUMP2 =    -0.20540176786704D+03
 SCF Done:  E(RHF) =  -204.616188219     A.U. after    5 cycles
 E2 =    -0.7855830302D+00 EUMP2 =    -0.20540177124955D+03
 SCF Done:  E(RHF) =  -204.616188854     A.U. after    4 cycles
 E2 =    -0.7855826163D+00 EUMP2 =    -0.20540177147033D+03
 SCF Done:  E(RHF) =  -204.616187590     A.U. after    3 cycles
 E2 =    -0.7855838916D+00 EUMP2 =    -0.20540177148122D+03
 Optimization completed.
    -- Stationary point found.

                         Standard orientation:
 ---------------------------------------------------------------------
 Center     Atomic      Atomic             Coordinates (Angstroms)
 Number     Number       Type             X           Y           Z
 ---------------------------------------------------------------------
      1          6           0        0.000000    0.000000    0.000000
      2          7           0       -1.151243   -0.664671   -0.000000
      3          7           0       -0.000000    1.329341    0.000000
      4          7           0        1.151243   -0.664671    0.000000
      5          1           0        0.859713    1.850907    0.000000
      6          1           0       -0.859713    1.850907    0.000000
      7          1           0       -1.173076   -1.669987   -0.000000
      8          1           0       -2.032789   -0.180920   -0.000000
      9          1           0        1.173076   -1.669986    0.000000
     10          1           0        2.032789   -0.180920    0.000000
 ---------------------------------------------------------------------

 The electronic state is 1-A'.
 Alpha  occ. eigenvalues --  -15.79842 -15.79842 -15.79838 -11.60890  -1.55263
 Alpha  occ. eigenvalues --   -1.40423  -1.40423  -1.08150  -0.98707  -0.98707
 Alpha  occ. eigenvalues --   -0.87224  -0.87107  -0.87107  -0.81920  -0.63294
 Alpha  occ. eigenvalues --   -0.63294
 Alpha virt. eigenvalues --   -0.10388  -0.07980  -0.07980  -0.05615  -0.05282
 Alpha virt. eigenvalues --   -0.05282  -0.02160  -0.01687  -0.01035  -0.00466
 Alpha virt. eigenvalues --    0.00071   0.00071   0.00336   0.00336   0.02078

 Mulliken charges:
               1
     1  C    0.618048
     2  N   -0.200420
     3  N   -0.200420
     4  N   -0.200420
     5  H    0.163869
     6  H    0.163869
     7  H    0.163869
     8  H    0.163869
     9  H    0.163869
    10  H    0.163869
 Sum of Mulliken charges =   1.00000

 Dipole moment (field-independent basis, Debye):
    X=              0.0000    Y=              0.0000    Z=             -0.0000  Tot=              0.0000
 Quadrupole moment (field-independent basis, Debye-Ang):
   XX=             -9.9405   YY=             -9.9405   ZZ=            -26.6282
   XY=             -0.0000   XZ=              0.0000   YZ=              0.0000

 ESP charges:
               1
     1  C    1.011592
     2  N   -0.952749
     3  N   -0.950510
     4  N   -0.953689
     5  H    0.473622
     6  H    0.473575
     7  H    0.474165
     8  H    0.474443
     9  H    0.474878
    10  H    0.474672
 Sum of ESP charges =   1.00000

 Normal termination of Gaussian 16 at Tue Sep 30 17:06:20 2025.
