 Gaussian 16, Revision C.01,
 Gaussian 16:  ES64L-G16RevC.01  3-Jul-2019

 ----------------------------------------------------------------------
 #P HF/aug-cc-pvtz Opt=tight Pop=(MK,Hirshfeld) iop(6/33=2) iop(6/42=6)
  maxdisk=128GB
 ----------------------------------------------------------------------

 -------------
 ethylammonium
 -------------
 Symbolic Z-matrix:
 Charge =  1 Multiplicity = 1

 SCF Done:  E(RHF) =  -134.675640634     A.U. after   11 cycles

 The electronic state is 1-A'.
 Alpha  occ. eigenvalues --  -15.89492 -11.48407 -11.40154  -1.52362  -1.22972
 Alpha  occ. eigenvalues --   -1.06828  -0.98438  -0.97246  -0.85852  -0.81050
 Alpha  occ. eigenvalues --   -0.73243  -0.71990  -0.70178
 Alpha virt. eigenvalues --   -0.11866  -0.08327  -0.08305  -0.07566  -0.04817
 Alpha virt. eigenvalues --   -0.04628  -0.04224  -0.03953  -0.03439  -0.02331
 Alpha virt. eigenvalues --    0.00246   0.00450   0.00760   0.01046   0.02323

 Mulliken charges:
               1
     1  N    0.144182
     2  C   -0.312485
     3  H    0.118382
     4  H    0.139579
     5  H    0.139579
     6  H    0.355992
     7  H    0.355992
     8  C   -0.920016
     9  H    0.310346
    10  H    0.358104
    11  H    0.310346
 Sum of Mulliken charges =   1.00000

 Dipole moment (field-independent basis, Debye):
    X=             -3.7465    Y=             -0.9499    Z=              0.0000  Tot=              3.8650
 Quadrupole moment (field-independent basis, Debye-Ang):
   XX=             -9.1777   YY=            -15.5972   ZZ=            -16.4258
   XY=              2.0262   XZ=             -0.0000   YZ=             -0.0000

 ESP charges:
               1
     1  N   -0.563180
     2  C    0.229104
     3  H    0.375827
     4  H    0.377952
     5  H    0.377952
     6  H    0.076456
     7  H    0.076456
     8  C   -0.378358
     9  H    0.134590
    10  H    0.158613
    11  H    0.134590
 Sum of ESP charges =   1.00000

 Optimization completed.
    -- Stationary point found.

                         Standard orientation:
 ---------------------------------------------------------------------
 Center     Atomic      Atomic             Coordinates (Angstroms)
 Number     Number       Type             X           Y           Z
 ---------------------------------------------------------------------
      1          7           0       -1.171550   -0.351078    0.000000
      2          6           0       -0.000000    0.609682    0.000000
      3          1           0       -2.051860    0.138262    0.000000
      4          1           0       -1.152090   -0.946928    0.812120
      5          1           0       -1.152090   -0.946928   -0.812120
      6          1           0       -0.119030    1.224552    0.878400
      7          1           0       -0.119030    1.224552   -0.878400
      8          6           0        1.308980   -0.151648    0.000000
      9          1           0        1.409200   -0.771928    0.882480
     10          1           0        2.122670    0.559692    0.000000
     11          1           0        1.409200   -0.771928   -0.882480
 ---------------------------------------------------------------------

 Normal termination of Gaussian 16 at Tue Sep 30 16:59:15 2025.
