 Gaussian 16, Revision C.01,
 Gaussian 16:  ES64L-G16RevC.01  3-Jul-2019

 ----------------------------------------------------------------------
 #P HF/aug-cc-pvtz Opt=(Redundant, calcall, verytight) symm=(loose,foll
 ow) Pop=(MK,Hirshfeld,ReadRadii) iop(6/33=2) iop(6/42=6) Polar Freq ma
 xdisk=128GB
 ----------------------------------------------------------------------

 -------------
 ethylammonium
 -------------
 Symbolic Z-matrix:
 Charge =  1 Multiplicity = 1

 SCF Done:  E(RHF) =  -134.674218496     A.U. after   11 cycles
 SCF Done:  E(RHF) =  -134.675636122     A.U. after    8 cycles
 SCF Done:  E(RHF) =  -134.675640629     A.U. after    7 cycles
 SCF Done:  E(RHF) =  -134.675640634     A.U. after    4 cycles
 SCF Done:  E(RHF) =  -134.675640634     A.U. after    1 cycles
 SCF Done:  E(RHF) =  -134.675640634     A.U. after    1 cycles
 SCF Done:  E(RHF) =  -134.675640634     A.U. after    1 cycles
 SCF Done:  E(RHF) =  -134.675640634     A.U. after    2 cycles
 SCF Done:  E(RHF) =  -134.675640634     A.U. after    2 cycles
 SCF Done:  E(RHF) =  -134.675640634     A.U. after    2 cycles
 SCF Done:  E(RHF) =  -134.675640634     A.U. after    1 cycles
 SCF Done:  E(RHF) =  -134.675640634     A.U. after    1 cycles
 SCF Done:  E(RHF) =  -134.675640634     A.U. after    3 cycles
 SCF Done:  E(RHF) =  -134.675640634     A.U. after    2 cycles
 SCF Done:  E(RHF) =  -134.675640634     A.U. after    3 cycles
 SCF Done:  E(RHF) =  -134.675640634     A.U. after    2 cycles
 SCF Done:  E(RHF) =  -134.675640634     A.U. after    2 cycles
 SCF Done:  E(RHF) =  -134.675640634     A.U. after    1 cycles
 SCF Done:  E(RHF) =  -134.675640634     A.U. after    2 cycles
 Optimization completed.
    -- Stationary point found.
 Normal termination of Gaussian 16 at Sun Sep 28 23:24:32 2025.

 ----------------------------------------------------------------------
 #P Geom=AllCheck Guess=TCheck SCRF=Check Test GenChk RHF/Aug-CC-pVTZ F
 req
 ----------------------------------------------------------------------

 Structure from the checkpoint file:  "water19.chk"
 -------------
 ethylammonium
 -------------
 Charge =  1 Multiplicity = 1

                         Standard orientation:
 ---------------------------------------------------------------------
 Center     Atomic      Atomic             Coordinates (Angstroms)
 Number     Number       Type             X           Y           Z
 ---------------------------------------------------------------------
      1          7           0       -1.171548   -0.351076    0.000000
      2          6           0       -0.000000    0.609680   -0.000000
      3          1           0       -2.051857    0.138256    0.000000
      4          1           0       -1.152092   -0.946931    0.812124
      5          1           0       -1.152092   -0.946931   -0.812124
      6          1           0       -0.119025    1.224548    0.878397
      7          1           0       -0.119025    1.224548   -0.878397
      8          6           0        1.308978   -0.151648   -0.000000
      9          1           0        1.409198   -0.771929    0.882478
     10          1           0        2.122668    0.559689   -0.000000
     11          1           0        1.409198   -0.771929   -0.882478
 ---------------------------------------------------------------------

 SCF Done:  E(RHF) =  -134.675640634     A.U. after    2 cycles

 The electronic state is 1-A'.
 Alpha  occ. eigenvalues --  -15.89493 -11.48406 -11.40154  -1.52362  -1.22972
 Alpha  occ. eigenvalues --   -1.06828  -0.98438  -0.97246  -0.85852  -0.81050
 Alpha  occ. eigenvalues --   -0.73244  -0.71990  -0.70178
 Alpha virt. eigenvalues --   -0.11866  -0.08327  -0.08305  -0.07566  -0.04817
 Alpha virt. eigenvalues --   -0.04628  -0.04224  -0.03953  -0.03439  -0.02331
 Alpha virt. eigenvalues --    0.00246   0.00450   0.00760   0.01046   0.02323

 Mulliken charges:
               1
     1  N    0.144175
     2  C   -0.312477
     3  H    0.118375
     4  H    0.139585
     5  H    0.139585
     6  H    0.355992
     7  H    0.355992
     8  C   -0.920021
     9  H    0.310345
    10  H    0.358105
    11  H    0.310345
 Sum of Mulliken charges =   1.00000

 Dipole moment (field-independent basis, Debye):
    X=             -3.7465    Y=             -0.9499    Z=             -0.0000  Tot=              3.8651
 Quadrupole moment (field-independent basis, Debye-Ang):
   XX=             -9.1777   YY=            -15.5972   ZZ=            -16.4258
   XY=              2.0263   XZ=             -0.0000   YZ=              0.0000

  Exact polarizability:      33.366       0.435      29.371      -0.000      -0.000      27.783
 Approx polarizability:      26.908       0.338      26.412      -0.000       0.000      26.038

 ESP charges:
               1
     1  N   -0.561725
     2  C    0.209555
     3  H    0.376072
     4  H    0.378702
     5  H    0.378702
     6  H    0.082237
     7  H    0.082237
     8  C   -0.374916
     9  H    0.134790
    10  H    0.159555
    11  H    0.134790
 Sum of ESP charges =   1.00000

                      1                      2                      3
                     A"                     A"                     A'
 Frequencies --    228.8907               280.1808               399.8080
 Red. masses --      1.0315                 1.1248                 2.1592
 Frc consts  --      0.0318                 0.0520                 0.2034
 IR Inten    --      0.3212                 0.7115                 8.8641
 Raman Activ --      0.0062                 0.0206                 0.7593

                      4                      5                      6
                     A"                     A'                     A"
 Frequencies --    846.4166               869.1776              1005.3086
 Red. masses --      1.0714                 3.1463                 1.0931
 Frc consts  --      0.4523                 1.4005                 0.6509
 IR Inten    --      8.8104                 9.3949                 5.8032
 Raman Activ --      0.0039                10.4638                 0.0620

                      7                      8                      9
                     A'                     A'                     A'
 Frequencies --   1011.9888              1071.2730              1284.4258
 Red. masses --      1.3674                 2.1273                 1.6734
 Frc consts  --      0.8251                 1.4384                 1.6266
 IR Inten    --     10.6760                16.1500                16.4695
 Raman Activ --      1.9706                 3.8672                 2.4127

                     10                     11                     12
                     A"                     A"                     A'
 Frequencies --   1338.2165              1459.5286              1524.9398
 Red. masses --      1.5759                 1.1266                 1.2659
 Frc consts  --      1.6628                 1.4140                 1.7345
 IR Inten    --      3.8384                 8.3258                 5.2033
 Raman Activ --      0.1940                 3.0183                 0.5502

                     13                     14                     15
                     A'                     A'                     A"
 Frequencies --   1561.1788              1607.9648              1609.6431
 Red. masses --      1.2527                 1.0703                 1.0378
 Frc consts  --      1.7989                 1.6305                 1.5842
 IR Inten    --     18.8809                 1.7203                 8.8623
 Raman Activ --      0.8290                 5.0277                 5.0981

                     16                     17                     18
                     A'                     A'                     A"
 Frequencies --   1631.8052              1644.4601              1793.1107
 Red. masses --      1.0888                 1.1778                 1.0417
 Frc consts  --      1.7081                 1.8765                 1.9733
 IR Inten    --     12.0848               150.8478                53.4154
 Raman Activ --      1.7473                 0.1459                 2.8494

                     19                     20                     21
                     A'                     A'                     A"
 Frequencies --   1794.6048              3171.2524              3234.3209
 Red. masses --      1.0441                 1.0380                 1.1057
 Frc consts  --      1.9812                 6.1506                 6.8149
 IR Inten    --     38.5629                 5.3860                 9.5336
 Raman Activ --      3.1044               149.2256                59.1973

                     22                     23                     24
                     A'                     A'                     A"
 Frequencies --   3235.8106              3263.8388              3296.0619
 Red. masses --      1.0616                 1.0999                 1.1129
 Frc consts  --      6.5489                 6.9031                 7.1234
 IR Inten    --      2.7468                 3.2529                 3.6532
 Raman Activ --     88.6929                61.4640                26.2927

                     25                     26                     27
                     A'                     A"                     A'
 Frequencies --   3616.2822              3702.1665              3705.5229
 Red. masses --      1.0310                 1.0940                 1.0942
 Frc consts  --      7.9442                 8.8342                 8.8521
 IR Inten    --     56.5102               106.8462               113.9017
 Raman Activ --     82.6646                20.2289                29.9288

 - Thermochemistry -
 -------------------
 Temperature   298.150 Kelvin.  Pressure   1.00000 Atm.
 Atom     1 has atomic number  7 and mass  14.00307

 Molecular mass:    46.06567 amu.
 Principal axes and moments of inertia in atomic units:
                           1         2         3
     Eigenvalues --    60.37448 214.61210 243.17289
           X            0.99566  -0.09310   0.00000
           Y            0.09310   0.99566   0.00000
           Z            0.00000  -0.00000   1.00000
 This molecule is an asymmetric top.
 Rotational symmetry number  1.
 Rotational temperatures (Kelvin)      1.43461     0.40358     0.35618
 Rotational constants (GHZ):          29.89245     8.40932     7.42164
 Zero-point vibrational energy     300192.0 (Joules/Mol)
                                   71.74760 (Kcal/Mol)
 Warning -- explicit consideration of   3 degrees of freedom as
           vibrations may cause significant error
 Vibrational temperatures:    329.32   403.12   575.23  1217.80  1250.55
          (Kelvin)           1446.41  1456.03  1541.32  1848.00  1925.40
                             2099.94  2194.05  2246.19  2313.50  2315.92
                             2347.80  2366.01  2579.89  2582.04  4562.72
                             4653.47  4655.61  4695.94  4742.30  5203.02
                             5326.59  5331.42

 Zero-point correction=                           0.114337 (Hartree/Particle)
 Thermal correction to Energy=                    0.118718
 Thermal correction to Enthalpy=                  0.119662
 Thermal correction to Gibbs Free Energy=         0.088700
 Sum of electronic and zero-point Energies=           -134.561304
 Sum of electronic and thermal Energies=              -134.556923
 Sum of electronic and thermal Enthalpies=            -134.555979
 Sum of electronic and thermal Free Energies=         -134.586940

                     E (Thermal)             CV                S
                      KCal/Mol        Cal/Mol-Kelvin    Cal/Mol-Kelvin
 Total                   74.496             13.849             65.163
 Electronic               0.000              0.000              0.000
 Translational            0.889              2.981             37.408
 Rotational               0.889              2.981             22.670
 Vibrational             72.719              7.887              5.085
 Vibration     1          0.652              1.797              1.888
 Vibration     2          0.680              1.710              1.533
 Vibration     3          0.766              1.471              0.963

                           ! Non-Optimized Parameters !
 Normal termination of Gaussian 16 at Sun Sep 28 23:28:41 2025.
