 Gaussian 16, Revision C.01,
 Gaussian 16:  ES64L-G16RevC.01  3-Jul-2019

 ----------------------------------------------------------------------
 #P HF/aug-cc-pvtz Opt=tight Pop=(MK,Hirshfeld) iop(6/33=2) iop(6/42=6)
  maxdisk=128GB
 ----------------------------------------------------------------------

 --------------
 methylammonium
 --------------
 Symbolic Z-matrix:
 Charge =  1 Multiplicity = 1

 SCF Done:  E(RHF) =  -95.6192435442     A.U. after   10 cycles

 The electronic state is 1-A'.
 Alpha  occ. eigenvalues --  -15.90932 -11.48948  -1.53544  -1.18214  -0.99449
 Alpha  occ. eigenvalues --   -0.99449  -0.86859  -0.78723  -0.78723
 Alpha virt. eigenvalues --   -0.12730  -0.08643  -0.08643  -0.08431  -0.04758
 Alpha virt. eigenvalues --   -0.04758  -0.04349  -0.01877  -0.01877  -0.01552
 Alpha virt. eigenvalues --    0.00567   0.00567   0.00752   0.04098   0.04098

 Mulliken charges:
               1
     1  N    0.138521
     2  C   -0.783394
     3  H    0.157420
     4  H    0.157416
     5  H    0.157416
     6  H    0.390874
     7  H    0.390874
     8  H    0.390874
 Sum of Mulliken charges =   1.00000

 Dipole moment (field-independent basis, Debye):
    X=              0.0000    Y=              2.1425    Z=             -0.0000  Tot=              2.1425
 Quadrupole moment (field-independent basis, Debye-Ang):
   XX=            -10.1524   YY=             -6.8593   ZZ=            -10.1524
   XY=              0.0000   XZ=              0.0000   YZ=             -0.0000

 ESP charges:
               1
     1  N   -0.353841
     2  C   -0.056394
     3  H    0.340168
     4  H    0.339950
     5  H    0.339950
     6  H    0.130106
     7  H    0.130106
     8  H    0.129955
 Sum of ESP charges =   1.00000

 Optimization completed.
    -- Stationary point found.

                         Standard orientation:
 ---------------------------------------------------------------------
 Center     Atomic      Atomic             Coordinates (Angstroms)
 Number     Number       Type             X           Y           Z
 ---------------------------------------------------------------------
      1          7           0       -0.000001    0.707162    0.000000
      2          6           0       -0.000001   -0.796118   -0.000000
      3          1           0        0.938449    1.074062   -0.000000
      4          1           0       -0.469221    1.074062    0.812720
      5          1           0       -0.469221    1.074062   -0.812720
      6          1           0        0.511729   -1.131868    0.886340
      7          1           0        0.511729   -1.131868   -0.886340
      8          1           0       -1.023461   -1.131868    0.000000
 ---------------------------------------------------------------------

 Normal termination of Gaussian 16 at Tue Sep 30 16:59:00 2025.
