 Gaussian 16, Revision C.01,
 Gaussian 16:  ES64L-G16RevC.01  3-Jul-2019

 ----------------------------------------------------------------------
 #P MP2/aug-cc-pvtz Opt=tight density=MP2 Pop=(MK,Hirshfeld) iop(6/33=2
 ) iop(6/42=6) maxdisk=128GB
 ----------------------------------------------------------------------

 -------
 formate
 -------
 Symbolic Z-matrix:
 Charge = -1 Multiplicity = 1

 SCF Done:  E(RHF) =  -188.276020407     A.U. after   11 cycles
 E2 =    -0.6528134063D+00 EUMP2 =    -0.18892883381350D+03
 SCF Done:  E(RHF) =  -188.273942335     A.U. after   10 cycles
 E2 =    -0.6572091944D+00 EUMP2 =    -0.18893115152916D+03
 SCF Done:  E(RHF) =  -188.273438485     A.U. after    9 cycles
 E2 =    -0.6577734341D+00 EUMP2 =    -0.18893121191911D+03
 SCF Done:  E(RHF) =  -188.273387948     A.U. after    8 cycles
 E2 =    -0.6578278110D+00 EUMP2 =    -0.18893121575941D+03
 SCF Done:  E(RHF) =  -188.273411334     A.U. after    6 cycles
 E2 =    -0.6578045473D+00 EUMP2 =    -0.18893121588105D+03
 SCF Done:  E(RHF) =  -188.273414324     A.U. after    4 cycles
 E2 =    -0.6578015621D+00 EUMP2 =    -0.18893121588617D+03
 Optimization completed.
    -- Stationary point found.

                         Standard orientation:
 ---------------------------------------------------------------------
 Center     Atomic      Atomic             Coordinates (Angstroms)
 Number     Number       Type             X           Y           Z
 ---------------------------------------------------------------------
      1          8           0       -0.000000    1.141226   -0.210211
      2          8           0       -0.000000   -1.141226   -0.210211
      3          6           0       -0.000000    0.000000    0.319614
      4          1           0       -0.000000    0.000000    1.445690
 ---------------------------------------------------------------------

 The electronic state is 1-A1.
 Alpha  occ. eigenvalues --  -20.28908 -20.28905 -11.12527  -1.15370  -1.05887
 Alpha  occ. eigenvalues --   -0.55678  -0.42820  -0.38623  -0.33957  -0.20876
 Alpha  occ. eigenvalues --   -0.18959  -0.18662
 Alpha virt. eigenvalues --    0.14386   0.21299   0.21404   0.21702   0.28059
 Alpha virt. eigenvalues --    0.31802   0.32769   0.33883   0.36461   0.37016
 Alpha virt. eigenvalues --    0.39210   0.41830   0.42148   0.45696   0.49175

 Mulliken charges:
               1
     1  O   -0.591058
     2  O   -0.591058
     3  C   -0.167608
     4  H    0.349723
 Sum of Mulliken charges =  -1.00000

 Dipole moment (field-independent basis, Debye):
    X=              0.0000    Y=              0.0000    Z=              1.4682  Tot=              1.4682
 Quadrupole moment (field-independent basis, Debye-Ang):
   XX=            -19.5538   YY=            -29.7117   ZZ=            -21.3223
   XY=             -0.0000   XZ=             -0.0000   YZ=              0.0000

 ESP charges:
               1
     1  O   -0.802737
     2  O   -0.802737
     3  C    0.801471
     4  H   -0.195997
 Sum of ESP charges =  -1.00000

 Normal termination of Gaussian 16 at Tue Sep 30 16:59:48 2025.
