 Gaussian 16, Revision C.01,
 Gaussian 16:  ES64L-G16RevC.01  3-Jul-2019

 ----------------------------------------------------------------------
 #P HF/aug-cc-pvtz Opt=tight Pop=(MK,Hirshfeld) iop(6/33=2) iop(6/42=6)
  maxdisk=128GB
 ----------------------------------------------------------------------

 -----
 water
 -----
 Symbolic Z-matrix:
 Charge =  0 Multiplicity = 1

 SCF Done:  E(RHF) =  -76.0612030644     A.U. after   10 cycles

 The electronic state is 1-A1.
 Alpha  occ. eigenvalues --  -20.56350  -1.36084  -0.73044  -0.58450  -0.51124
 Alpha virt. eigenvalues --    0.02975   0.04764   0.13624   0.15737   0.17532
 Alpha virt. eigenvalues --    0.18247   0.22963   0.24558   0.26477   0.30334
 Alpha virt. eigenvalues --    0.31234   0.36613   0.44166   0.46961   0.60199

 Mulliken charges:
               1
     1  O   -0.410356
     2  H    0.205178
     3  H    0.205178
 Sum of Mulliken charges =   0.00000

 Dipole moment (field-independent basis, Debye):
    X=             -0.0000    Y=              0.0000    Z=             -1.9394  Tot=              1.9394
 Quadrupole moment (field-independent basis, Debye-Ang):
   XX=             -7.5231   YY=             -4.2053   ZZ=             -6.2875
   XY=              0.0000   XZ=              0.0000   YZ=              0.0000

 ESP charges:
               1
     1  O   -0.737598
     2  H    0.368799
     3  H    0.368799
 Sum of ESP charges =   0.00000

 Optimization completed.
    -- Stationary point found.

                         Standard orientation:
 ---------------------------------------------------------------------
 Center     Atomic      Atomic             Coordinates (Angstroms)
 Number     Number       Type             X           Y           Z
 ---------------------------------------------------------------------
      1          8           0        0.000000    0.000000    0.112850
      2          1           0        0.000000    0.753090   -0.451400
      3          1           0       -0.000000   -0.753090   -0.451400
 ---------------------------------------------------------------------

 Normal termination of Gaussian 16 at Tue Sep 30 16:58:56 2025.
