 Gaussian 16, Revision C.01,
 Gaussian 16:  ES64L-G16RevC.01  3-Jul-2019

 ----------------------------------------------------------------------
 #P HF/aug-cc-pvtz Opt=tight Pop=(MK,Hirshfeld) iop(6/33=2) iop(6/42=6)
  maxdisk=128GB
 ----------------------------------------------------------------------

 ----------
 propanoate
 ----------
 Symbolic Z-matrix:
 Charge = -1 Multiplicity = 1

 SCF Done:  E(RHF) =  -266.379279514     A.U. after   12 cycles
 SCF Done:  E(RHF) =  -266.379279516     A.U. after    4 cycles
 Optimization completed.
    -- Stationary point found.

                         Standard orientation:
 ---------------------------------------------------------------------
 Center     Atomic      Atomic             Coordinates (Angstroms)
 Number     Number       Type             X           Y           Z
 ---------------------------------------------------------------------
      1          8           0       -0.787548    1.658051    0.000000
      2          8           0        1.230937    0.731942    0.000000
      3          6           0       -0.675990   -0.685792    0.000000
      4          6           0        0.270336   -1.878956    0.000000
      5          6           0        0.000000    0.709528    0.000000
      6          1           0       -1.331502   -0.722761    0.866195
      7          1           0       -1.331502   -0.722761   -0.866195
      8          1           0        0.915271   -1.861874   -0.870313
      9          1           0        0.915271   -1.861874    0.870313
     10          1           0       -0.280735   -2.819349    0.000000
 ---------------------------------------------------------------------

 The electronic state is 1-A'.
 Alpha  occ. eigenvalues --  -20.28457 -20.27984 -11.12011 -11.05961 -11.04627
 Alpha  occ. eigenvalues --   -1.17702  -1.07191  -0.86734  -0.70284  -0.51047
 Alpha  occ. eigenvalues --   -0.45631  -0.44602  -0.40765  -0.37505  -0.36518
 Alpha  occ. eigenvalues --   -0.34060  -0.31197  -0.20377  -0.19046  -0.18915
 Alpha virt. eigenvalues --    0.11761   0.13535   0.13715   0.14584   0.15808
 Alpha virt. eigenvalues --    0.19401   0.20493   0.22044   0.22231   0.23428
 Alpha virt. eigenvalues --    0.24511   0.24804   0.25020   0.27148   0.27192

 Mulliken charges:
               1
     1  O   -0.839626
     2  O   -0.810711
     3  C   -0.178731
     4  C   -0.855877
     5  C    0.431758
     6  H    0.220914
     7  H    0.220914
     8  H    0.279659
     9  H    0.279659
    10  H    0.252040
 Sum of Mulliken charges =  -1.00000

 Dipole moment (field-independent basis, Debye):
    X=             -1.2336    Y=             -5.6898    Z=              0.0000  Tot=              5.8220
 Quadrupole moment (field-independent basis, Debye-Ang):
   XX=            -41.6206   YY=            -46.7703   ZZ=            -31.9221
   XY=              1.6657   XZ=              0.0000   YZ=             -0.0000

 ESP charges:
               1
     1  O   -0.906523
     2  O   -0.858872
     3  C    0.077838
     4  C   -0.092155
     5  C    0.924795
     6  H   -0.057275
     7  H   -0.057275
     8  H    0.004280
     9  H    0.004280
    10  H   -0.039095
 Sum of ESP charges =  -1.00000

 Normal termination of Gaussian 16 at Tue Sep 30 16:59:59 2025.
