 Gaussian 16, Revision C.01,
 Gaussian 16:  ES64L-G16RevC.01  3-Jul-2019

 ----------------------------------------------------------------------
 #P HF/aug-cc-pvtz Opt=(Redundant, calcall, verytight) symm=(loose,foll
 ow) Pop=(MK,Hirshfeld,ReadRadii) iop(6/33=2) iop(6/42=6) Polar Freq ma
 xdisk=128GB
 ----------------------------------------------------------------------

 ----------
 propanoate
 ----------
 Symbolic Z-matrix:
 Charge = -1 Multiplicity = 1

 SCF Done:  E(RHF) =  -266.375167166     A.U. after   13 cycles
 SCF Done:  E(RHF) =  -266.379170704     A.U. after   13 cycles
 SCF Done:  E(RHF) =  -266.379255278     A.U. after   11 cycles
 SCF Done:  E(RHF) =  -266.379278435     A.U. after   12 cycles
 SCF Done:  E(RHF) =  -266.379279508     A.U. after    9 cycles
 SCF Done:  E(RHF) =  -266.379279516     A.U. after    5 cycles
 SCF Done:  E(RHF) =  -266.379279516     A.U. after    4 cycles
 SCF Done:  E(RHF) =  -266.379279516     A.U. after    4 cycles
 SCF Done:  E(RHF) =  -266.379279516     A.U. after    3 cycles
 SCF Done:  E(RHF) =  -266.379279516     A.U. after    2 cycles
 SCF Done:  E(RHF) =  -266.379279516     A.U. after    2 cycles
 Optimization completed.
    -- Stationary point found.
 Normal termination of Gaussian 16 at Sun Sep 28 22:18:42 2025.

 ----------------------------------------------------------------------
 #P Geom=AllCheck Guess=TCheck SCRF=Check Test GenChk RHF/Aug-CC-pVTZ F
 req
 ----------------------------------------------------------------------

 Structure from the checkpoint file:  "water19.chk"
 ----------
 propanoate
 ----------
 Charge = -1 Multiplicity = 1

                         Standard orientation:
 ---------------------------------------------------------------------
 Center     Atomic      Atomic             Coordinates (Angstroms)
 Number     Number       Type             X           Y           Z
 ---------------------------------------------------------------------
      1          8           0       -0.787553    1.658048   -0.000000
      2          8           0        1.230937    0.731950   -0.000000
      3          6           0       -0.675989   -0.685794    0.000000
      4          6           0        0.270342   -1.878960    0.000000
      5          6           0       -0.000000    0.709531   -0.000000
      6          1           0       -1.331533   -0.722760    0.866149
      7          1           0       -1.331533   -0.722760   -0.866149
      8          1           0        0.915306   -1.861881   -0.870273
      9          1           0        0.915306   -1.861881    0.870273
     10          1           0       -0.280732   -2.819354    0.000000
 ---------------------------------------------------------------------

 SCF Done:  E(RHF) =  -266.379279514     A.U. after    3 cycles

 The electronic state is 1-A'.
 Alpha  occ. eigenvalues --  -20.28457 -20.27984 -11.12011 -11.05961 -11.04627
 Alpha  occ. eigenvalues --   -1.17702  -1.07191  -0.86734  -0.70285  -0.51048
 Alpha  occ. eigenvalues --   -0.45630  -0.44602  -0.40765  -0.37505  -0.36518
 Alpha  occ. eigenvalues --   -0.34062  -0.31196  -0.20377  -0.19046  -0.18915
 Alpha virt. eigenvalues --    0.11761   0.13535   0.13715   0.14584   0.15808
 Alpha virt. eigenvalues --    0.19401   0.20493   0.22044   0.22231   0.23428
 Alpha virt. eigenvalues --    0.24511   0.24804   0.25020   0.27148   0.27192

 Mulliken charges:
               1
     1  O   -0.839626
     2  O   -0.810707
     3  C   -0.178758
     4  C   -0.855884
     5  C    0.431773
     6  H    0.220915
     7  H    0.220915
     8  H    0.279659
     9  H    0.279659
    10  H    0.252052
 Sum of Mulliken charges =  -1.00000

 Dipole moment (field-independent basis, Debye):
    X=             -1.2336    Y=             -5.6898    Z=             -0.0000  Tot=              5.8220
 Quadrupole moment (field-independent basis, Debye-Ang):
   XX=            -41.6202   YY=            -46.7702   ZZ=            -31.9223
   XY=              1.6657   XZ=             -0.0000   YZ=              0.0000

  Exact polarizability:      51.676      -1.742      54.644       0.000       0.000      39.887
 Approx polarizability:      45.608      -1.340      42.203      -0.000       0.000      38.546

 ESP charges:
               1
     1  O   -0.911041
     2  O   -0.860903
     3  C    0.072170
     4  C   -0.159322
     5  C    0.937218
     6  H   -0.051189
     7  H   -0.051189
     8  H    0.022791
     9  H    0.022791
    10  H   -0.021327
 Sum of ESP charges =  -1.00000

                      1                      2                      3
                     A"                     A"                     A'
 Frequencies --     33.4549               229.3811               280.3684
 Red. masses --      2.2319                 1.1107                 3.7987
 Frc consts  --      0.0015                 0.0344                 0.1759
 IR Inten    --      0.9394                 0.8850                 3.6154
 Raman Activ --      0.1109                 0.0387                 0.1596

                      4                      5                      6
                     A'                     A"                     A'
 Frequencies --    528.8750               636.3131               685.0230
 Red. masses --      5.3670                 1.7873                 4.0169
 Frc consts  --      0.8845                 0.4264                 1.1106
 IR Inten    --      7.7618                 6.9003                11.1504
 Raman Activ --      3.8928                 0.4212                 2.4248

                      7                      8                      9
                     A"                     A'                     A'
 Frequencies --    887.9057               921.1472              1061.9507
 Red. masses --      1.4653                 4.8329                 1.8493
 Frc consts  --      0.6806                 2.4161                 1.2288
 IR Inten    --      9.3482                54.4505                 1.7675
 Raman Activ --      0.5551                17.0041                 3.6299

                     10                     11                     12
                     A'                     A"                     A"
 Frequencies --   1167.0504              1187.6378              1378.9125
 Red. masses --      2.0809                 1.8881                 1.1990
 Frc consts  --      1.6698                 1.5691                 1.3432
 IR Inten    --     11.1647                 2.4662                 0.4862
 Raman Activ --      4.8882                 0.4787                 1.6326

                     13                     14                     15
                     A'                     A'                     A'
 Frequencies --   1422.6388              1508.6187              1528.5430
 Red. masses --      1.7024                 1.7103                 2.7755
 Frc consts  --      2.0301                 2.2934                 3.8208
 IR Inten    --     58.6179                88.8214               218.3270
 Raman Activ --      1.5396                 6.3622                 8.8023

                     16                     17                     18
                     A'                     A"                     A'
 Frequencies --   1580.6260              1594.4322              1610.0183
 Red. masses --      1.1005                 1.0425                 1.0647
 Frc consts  --      1.6199                 1.5614                 1.6261
 IR Inten    --      1.4942                 2.5960                15.5917
 Raman Activ --      5.9255                 4.2783                 1.6633

                     19                     20                     21
                     A'                     A'                     A'
 Frequencies --   1795.1229              3103.0358              3141.8579
 Red. masses --     11.0436                 1.0591                 1.0604
 Frc consts  --     20.9677                 6.0086                 6.1672
 IR Inten    --    798.1446               114.8080                72.9882
 Raman Activ --      5.0127               119.5778               210.3762

                     22                     23                     24
                     A"                     A'                     A"
 Frequencies --   3156.5617              3185.4697              3216.0624
 Red. masses --      1.1016                 1.0755                 1.1025
 Frc consts  --      6.4669                 6.4302                 6.7184
 IR Inten    --     36.9114                57.2027                86.6587
 Raman Activ --     97.7363                77.4600                28.1254

 - Thermochemistry -
 -------------------
 Temperature   298.150 Kelvin.  Pressure   1.00000 Atm.
 Atom     1 has atomic number  8 and mass  15.99491

 Molecular mass:    73.02895 amu.
 Principal axes and moments of inertia in atomic units:
                           1         2         3
     Eigenvalues --   171.70742 448.60591 598.61001
           X           -0.10143   0.99484   0.00000
           Y            0.99484   0.10143   0.00000
           Z           -0.00000   0.00000   1.00000
 This molecule is an asymmetric top.
 Rotational symmetry number  1.
 Rotational temperatures (Kelvin)      0.50443     0.19307     0.14469
 Rotational constants (GHZ):          10.51056     4.02300     3.01489
 Zero-point vibrational energy     214376.8 (Joules/Mol)
                                   51.23729 (Kcal/Mol)
 Warning -- explicit consideration of   4 degrees of freedom as
           vibrations may cause significant error
 Vibrational temperatures:     48.13   330.03   403.39   760.93   915.51
          (Kelvin)            985.60  1277.50  1325.33  1527.91  1679.13
                             1708.75  1983.95  2046.86  2170.57  2199.23
                             2274.17  2294.03  2316.46  2582.78  4464.58
                             4520.43  4541.59  4583.18  4627.20

 Zero-point correction=                           0.081652 (Hartree/Particle)
 Thermal correction to Energy=                    0.086987
 Thermal correction to Enthalpy=                  0.087931
 Thermal correction to Gibbs Free Energy=         0.052308
 Sum of electronic and zero-point Energies=           -266.297628
 Sum of electronic and thermal Energies=              -266.292293
 Sum of electronic and thermal Enthalpies=            -266.291349
 Sum of electronic and thermal Free Energies=         -266.326972

                     E (Thermal)             CV                S
                      KCal/Mol        Cal/Mol-Kelvin    Cal/Mol-Kelvin
 Total                   54.585             16.733             74.975
 Electronic               0.000              0.000              0.000
 Translational            0.889              2.981             38.781
 Rotational               0.889              2.981             25.337
 Vibrational             52.807             10.771             10.857
 Vibration     1          0.594              1.983              5.613
 Vibration     2          0.652              1.796              1.884
 Vibration     3          0.680              1.710              1.531
 Vibration     4          0.884              1.186              0.590

                           ! Non-Optimized Parameters !
 Normal termination of Gaussian 16 at Sun Sep 28 22:26:43 2025.
