 Gaussian 16, Revision C.01,
 Gaussian 16:  ES64L-G16RevC.01  3-Jul-2019

 ----------------------------------------------------------------------
 #P MP2/aug-cc-pvtz Opt=tight density=MP2 Pop=(MK,Hirshfeld) iop(6/33=2
 ) iop(6/42=6) maxdisk=128GB
 ----------------------------------------------------------------------

 ---------
 guanidine
 ---------
 Symbolic Z-matrix:
 Charge =  0 Multiplicity = 1

 SCF Done:  E(RHF) =  -204.216558037     A.U. after   12 cycles
 E2 =    -0.8001469129D+00 EUMP2 =    -0.20501670494944D+03
 SCF Done:  E(RHF) =  -204.214763183     A.U. after   10 cycles
 E2 =    -0.8037435902D+00 EUMP2 =    -0.20501850677276D+03
 SCF Done:  E(RHF) =  -204.214508892     A.U. after    9 cycles
 E2 =    -0.8041252732D+00 EUMP2 =    -0.20501863416469D+03
 SCF Done:  E(RHF) =  -204.214373464     A.U. after    9 cycles
 E2 =    -0.8042839271D+00 EUMP2 =    -0.20501865739108D+03
 SCF Done:  E(RHF) =  -204.214381066     A.U. after    8 cycles
 E2 =    -0.8042801999D+00 EUMP2 =    -0.20501866126572D+03
 SCF Done:  E(RHF) =  -204.214406354     A.U. after    8 cycles
 E2 =    -0.8042561948D+00 EUMP2 =    -0.20501866254833D+03
 SCF Done:  E(RHF) =  -204.214409750     A.U. after    6 cycles
 E2 =    -0.8042528871D+00 EUMP2 =    -0.20501866263694D+03
 SCF Done:  E(RHF) =  -204.214408109     A.U. after    5 cycles
 E2 =    -0.8042545369D+00 EUMP2 =    -0.20501866264562D+03
 SCF Done:  E(RHF) =  -204.214407604     A.U. after    3 cycles
 E2 =    -0.8042550163D+00 EUMP2 =    -0.20501866262000D+03
 SCF Done:  E(RHF) =  -204.214407880     A.U. after    4 cycles
 E2 =    -0.8042547756D+00 EUMP2 =    -0.20501866265573D+03
 SCF Done:  E(RHF) =  -204.214407821     A.U. after    3 cycles
 E2 =    -0.8042548030D+00 EUMP2 =    -0.20501866262382D+03
 SCF Done:  E(RHF) =  -204.214407702     A.U. after    5 cycles
 E2 =    -0.8042549408D+00 EUMP2 =    -0.20501866264277D+03
 Optimization completed.
    -- Stationary point found.

                         Standard orientation:
 ---------------------------------------------------------------------
 Center     Atomic      Atomic             Coordinates (Angstroms)
 Number     Number       Type             X           Y           Z
 ---------------------------------------------------------------------
      1          6           0       -0.019432    0.121293    0.000417
      2          7           0       -0.965761   -0.898999    0.080898
      3          7           0        1.275607   -0.373246   -0.085407
      4          7           0       -0.226508    1.385643    0.008491
      5          1           0        1.956579    0.361454    0.035164
      6          1           0        1.454722   -1.169417    0.507553
      7          1           0       -1.914266   -0.590465   -0.061243
      8          1           0       -0.742397   -1.712451   -0.472910
      9          1           0       -1.221408    1.589337   -0.038937
 ---------------------------------------------------------------------

 The electronic state is 1-A.
 Alpha  occ. eigenvalues --  -15.58199 -15.57028 -15.51356 -11.34486  -1.29729
 Alpha  occ. eigenvalues --   -1.17014  -1.13354  -0.81058  -0.72913  -0.70969
 Alpha  occ. eigenvalues --   -0.62828  -0.60980  -0.56508  -0.43902  -0.42482
 Alpha  occ. eigenvalues --   -0.36639
 Alpha virt. eigenvalues --    0.02341   0.03501   0.04344   0.05587   0.06185
 Alpha virt. eigenvalues --    0.09030   0.11222   0.12215   0.12587   0.13120
 Alpha virt. eigenvalues --    0.13734   0.14346   0.15624   0.17073   0.17161

 Mulliken charges:
               1
     1  C    0.359755
     2  N   -0.303761
     3  N   -0.266678
     4  N   -0.576534
     5  H    0.197668
     6  H    0.119427
     7  H    0.158705
     8  H    0.147025
     9  H    0.164393
 Sum of Mulliken charges =  -0.00000

 Dipole moment (field-independent basis, Debye):
    X=             -0.8508    Y=             -2.5971    Z=             -0.0393  Tot=              2.7332
 Quadrupole moment (field-independent basis, Debye-Ang):
   XX=            -18.4652   YY=            -27.0287   ZZ=            -27.6733
   XY=             -1.2021   XZ=              2.9665   YZ=              0.4350

 ESP charges:
               1
     1  C    0.820565
     2  N   -0.895190
     3  N   -0.906581
     4  N   -0.855747
     5  H    0.392831
     6  H    0.373798
     7  H    0.348168
     8  H    0.375144
     9  H    0.347012
 Sum of ESP charges =  -0.00000

 Normal termination of Gaussian 16 at Tue Sep 30 17:18:24 2025.
