 Gaussian 16, Revision C.01,
 Gaussian 16:  ES64L-G16RevC.01  3-Jul-2019

 ----------------------------------------------------------------------
 #P MP2/aug-cc-pvtz Opt=tight density=MP2 Pop=(MK,Hirshfeld) iop(6/33=2
 ) iop(6/42=6) maxdisk=128GB
 ----------------------------------------------------------------------

 ----------
 propanoate
 ----------
 Symbolic Z-matrix:
 Charge = -1 Multiplicity = 1

 SCF Done:  E(RHF) =  -266.379279514     A.U. after   12 cycles
 E2 =    -0.1005043558D+01 EUMP2 =    -0.26738432307199D+03
 SCF Done:  E(RHF) =  -266.377126628     A.U. after   10 cycles
 E2 =    -0.1009522116D+01 EUMP2 =    -0.26738664874387D+03
 SCF Done:  E(RHF) =  -266.376688929     A.U. after    9 cycles
 E2 =    -0.1010023551D+01 EUMP2 =    -0.26738671248021D+03
 SCF Done:  E(RHF) =  -266.376643056     A.U. after    7 cycles
 E2 =    -0.1010073366D+01 EUMP2 =    -0.26738671642152D+03
 SCF Done:  E(RHF) =  -266.376658156     A.U. after    6 cycles
 E2 =    -0.1010058600D+01 EUMP2 =    -0.26738671675593D+03
 SCF Done:  E(RHF) =  -266.376663943     A.U. after    5 cycles
 E2 =    -0.1010052828D+01 EUMP2 =    -0.26738671677039D+03
 SCF Done:  E(RHF) =  -266.376663757     A.U. after    4 cycles
 E2 =    -0.1010053007D+01 EUMP2 =    -0.26738671676406D+03
 SCF Done:  E(RHF) =  -266.376663192     A.U. after    3 cycles
 E2 =    -0.1010053542D+01 EUMP2 =    -0.26738671673383D+03
 SCF Done:  E(RHF) =  -266.376663412     A.U. after    4 cycles
 E2 =    -0.1010053361D+01 EUMP2 =    -0.26738671677279D+03
 Optimization completed.
    -- Stationary point found.

                         Standard orientation:
 ---------------------------------------------------------------------
 Center     Atomic      Atomic             Coordinates (Angstroms)
 Number     Number       Type             X           Y           Z
 ---------------------------------------------------------------------
      1          8           0       -0.791269    1.684122    0.000000
      2          8           0        1.260326    0.703664    0.000000
      3          6           0       -0.693046   -0.688515    0.000000
      4          6           0        0.260774   -1.874045    0.000000
      5          6           0        0.000000    0.703048    0.000000
      6          1           0       -1.350954   -0.720152    0.872537
      7          1           0       -1.350954   -0.720152   -0.872537
      8          1           0        0.910387   -1.838824   -0.873810
      9          1           0        0.910387   -1.838824    0.873810
     10          1           0       -0.277694   -2.827257    0.000000
 ---------------------------------------------------------------------

 The electronic state is 1-A'.
 Alpha  occ. eigenvalues --  -20.29041 -20.28615 -11.13201 -11.06284 -11.05307
 Alpha  occ. eigenvalues --   -1.16083  -1.06149  -0.86845  -0.70250  -0.51347
 Alpha  occ. eigenvalues --   -0.45606  -0.44352  -0.40468  -0.37140  -0.35898
 Alpha  occ. eigenvalues --   -0.34008  -0.30879  -0.20569  -0.19241  -0.18979
 Alpha virt. eigenvalues --    0.11715   0.13541   0.13713   0.14560   0.15802
 Alpha virt. eigenvalues --    0.19435   0.20476   0.22061   0.22233   0.23367
 Alpha virt. eigenvalues --    0.24547   0.24838   0.24963   0.27093   0.27206

 Mulliken charges:
               1
     1  O   -0.743280
     2  O   -0.709541
     3  C   -0.259160
     4  C   -0.890435
     5  C    0.263075
     6  H    0.242506
     7  H    0.242506
     8  H    0.296694
     9  H    0.296694
    10  H    0.260941
 Sum of Mulliken charges =  -1.00000

 Dipole moment (field-independent basis, Debye):
    X=             -1.1516    Y=             -5.3387    Z=             -0.0000  Tot=              5.4615
 Quadrupole moment (field-independent basis, Debye-Ang):
   XX=            -42.3208   YY=            -47.5991   ZZ=            -32.8205
   XY=              1.5394   XZ=             -0.0000   YZ=              0.0000

 ESP charges:
               1
     1  O   -0.837069
     2  O   -0.790679
     3  C    0.160389
     4  C   -0.130829
     5  C    0.778239
     6  H   -0.081139
     7  H   -0.081139
     8  H    0.011071
     9  H    0.011071
    10  H   -0.039916
 Sum of ESP charges =  -1.00000

 Normal termination of Gaussian 16 at Tue Sep 30 17:18:34 2025.
