 Gaussian 16, Revision C.01,
 Gaussian 16:  ES64L-G16RevC.01  3-Jul-2019

 ----------------------------------------------------------------------
 #P MP2/aug-cc-pvtz Opt=tight density=MP2 Pop=(MK,Hirshfeld) iop(6/33=2
 ) iop(6/42=6) maxdisk=128GB
 ----------------------------------------------------------------------

 -----
 water
 -----
 Symbolic Z-matrix:
 Charge =  0 Multiplicity = 1

 SCF Done:  E(RHF) =  -76.0612030644     A.U. after   10 cycles
 E2 =    -0.2669407931D+00 EUMP2 =    -0.76328143857488D+02
 SCF Done:  E(RHF) =  -76.0604886258     A.U. after    9 cycles
 E2 =    -0.2684789538D+00 EUMP2 =    -0.76328967579654D+02
 SCF Done:  E(RHF) =  -76.0602762145     A.U. after    8 cycles
 E2 =    -0.2687160246D+00 EUMP2 =    -0.76328992239172D+02
 SCF Done:  E(RHF) =  -76.0602820785     A.U. after    6 cycles
 E2 =    -0.2687102447D+00 EUMP2 =    -0.76328992323206D+02
 Optimization completed.
    -- Stationary point found.

                         Standard orientation:
 ---------------------------------------------------------------------
 Center     Atomic      Atomic             Coordinates (Angstroms)
 Number     Number       Type             X           Y           Z
 ---------------------------------------------------------------------
      1          8           0        0.000000    0.000000    0.118231
      2          1           0        0.000000    0.758130   -0.472925
      3          1           0       -0.000000   -0.758130   -0.472925
 ---------------------------------------------------------------------

 The electronic state is 1-A1.
 Alpha  occ. eigenvalues --  -20.56810  -1.35177  -0.71480  -0.58495  -0.51014
 Alpha virt. eigenvalues --    0.02937   0.04769   0.13589   0.15878   0.17516
 Alpha virt. eigenvalues --    0.18308   0.22712   0.24492   0.26539   0.30000
 Alpha virt. eigenvalues --    0.31013   0.36578   0.43732   0.46603   0.59918

 Mulliken charges:
               1
     1  O   -0.429584
     2  H    0.214792
     3  H    0.214792
 Sum of Mulliken charges =   0.00000

 Dipole moment (field-independent basis, Debye):
    X=             -0.0000    Y=              0.0000    Z=             -1.8594  Tot=              1.8594
 Quadrupole moment (field-independent basis, Debye-Ang):
   XX=             -7.8537   YY=             -4.4597   ZZ=             -6.4746
   XY=              0.0000   XZ=              0.0000   YZ=             -0.0000

 ESP charges:
               1
     1  O   -0.678285
     2  H    0.339142
     3  H    0.339142
 Sum of ESP charges =  -0.00000

 Normal termination of Gaussian 16 at Tue Sep 30 16:59:06 2025.
