 Gaussian 16, Revision C.01,
 Gaussian 16:  ES64L-G16RevC.01  3-Jul-2019

 ----------------------------------------------------------------------
 #P MP2/aug-cc-pvtz Opt=tight density=MP2 Pop=(MK,Hirshfeld) iop(6/33=2
 ) iop(6/42=6) maxdisk=128GB
 ----------------------------------------------------------------------

 -------
 bromide
 -------
 Symbolic Z-matrix:
 Charge = -1 Multiplicity = 1

 SCF Done:  E(RHF) =  -2572.53367765     A.U. after    9 cycles
 E2 =    -0.2411536402D+00 EUMP2 =    -0.25727748312903D+04

 The electronic state is 1-A1G.
 Alpha  occ. eigenvalues -- -489.72028 -64.86040 -58.21486 -58.21486 -58.21486
 Alpha  occ. eigenvalues --   -9.53283  -7.14017  -7.14017  -7.14017  -2.88184
 Alpha  occ. eigenvalues --   -2.88184  -2.88184  -2.88184  -2.88184  -0.68600
 Alpha  occ. eigenvalues --   -0.13934  -0.13934  -0.13934
 Alpha virt. eigenvalues --    0.25157   0.25157   0.25157   0.28051   0.49083
 Alpha virt. eigenvalues --    0.49083   0.49083   0.49083   0.49083   0.74101
 Alpha virt. eigenvalues --    0.74101   0.74101   0.91174   1.03420   1.03420

 Mulliken charges:
               1
     1  Br  -1.000000
 Sum of Mulliken charges =  -1.00000

 Dipole moment (field-independent basis, Debye):
    X=              0.0000    Y=              0.0000    Z=              0.0000  Tot=              0.0000
 Quadrupole moment (field-independent basis, Debye-Ang):
   XX=            -24.2823   YY=            -24.2823   ZZ=            -24.2823
   XY=             -0.0000   XZ=             -0.0000   YZ=              0.0000

 ESP charges:
               1
     1  Br  -1.000000
 Sum of ESP charges =  -1.00000

 Optimization completed.
    -- Stationary point found.

                         Standard orientation:
 ---------------------------------------------------------------------
 Center     Atomic      Atomic             Coordinates (Angstroms)
 Number     Number       Type             X           Y           Z
 ---------------------------------------------------------------------
      1         35           0        0.000000    0.000000    0.000000
 ---------------------------------------------------------------------

 1\1\NSC-N1100\FOpt\RMP2-FC\Aug-CC-pVTZ\Br1(1-)\X_DAVVA\30-Sep-2025\0\\
 #P MP2/aug-cc-pvtz Opt=tight density=MP2 Pop=(MK,Hirshfeld) iop(6/33=2
 ) iop(6/42=6) maxdisk=128GB\\bromide\\-1,1\Br,0.,0.,0.\\Version=ES64L-
 G16RevC.01\State=1-A1G\HF=-2572.5336777\MP2=-2572.7748313\RMSD=3.103e-
 09\RMSF=0.000e+00\Dipole=0.,0.,0.\Quadrupole=0.,0.,0.,0.,0.,0.\PG=OH [
 O(Br1)]\\@

 Normal termination of Gaussian 16 at Tue Sep 30 16:58:58 2025.
