 Gaussian 16, Revision C.01,
 Gaussian 16:  ES64L-G16RevC.01  3-Jul-2019

 ----------------------------------------------------------------------
 #P HF/aug-cc-pvtz Opt=(Redundant, calcall, verytight) symm=(loose,foll
 ow) Pop=(MK,Hirshfeld,ReadRadii) iop(6/33=2) iop(6/42=6) Polar Freq ma
 xdisk=128GB
 ----------------------------------------------------------------------

 ---------
 butanoate
 ---------
 Symbolic Z-matrix:
 Charge = -1 Multiplicity = 1

 SCF Done:  E(RHF) =  -305.423711623     A.U. after   12 cycles
 SCF Done:  E(RHF) =  -305.427592785     A.U. after   10 cycles
 SCF Done:  E(RHF) =  -305.427629141     A.U. after    9 cycles
 SCF Done:  E(RHF) =  -305.427629540     A.U. after    7 cycles
 SCF Done:  E(RHF) =  -305.427629542     A.U. after    6 cycles
 SCF Done:  E(RHF) =  -305.427629542     A.U. after    5 cycles
 SCF Done:  E(RHF) =  -305.427629542     A.U. after    4 cycles
 SCF Done:  E(RHF) =  -305.427629542     A.U. after    3 cycles
 SCF Done:  E(RHF) =  -305.427629542     A.U. after    3 cycles
 SCF Done:  E(RHF) =  -305.427629542     A.U. after    2 cycles
 SCF Done:  E(RHF) =  -305.427629542     A.U. after    2 cycles
 Optimization completed.
    -- Stationary point found.
 Normal termination of Gaussian 16 at Mon Sep 29 00:14:44 2025.

 ----------------------------------------------------------------------
 #P Geom=AllCheck Guess=TCheck SCRF=Check Test GenChk RHF/Aug-CC-pVTZ F
 req
 ----------------------------------------------------------------------

 Structure from the checkpoint file:  "water19.chk"
 ---------
 butanoate
 ---------
 Charge = -1 Multiplicity = 1

                         Standard orientation:
 ---------------------------------------------------------------------
 Center     Atomic      Atomic             Coordinates (Angstroms)
 Number     Number       Type             X           Y           Z
 ---------------------------------------------------------------------
      1          6           0        0.146917   -0.569757    0.000038
      2          6           0       -1.291676    0.009214    0.000004
      3          8           0       -1.398383    1.235740    0.000025
      4          8           0       -2.183343   -0.841559   -0.000033
      5          6           0        1.277234    0.450099   -0.000047
      6          1           0        0.229535   -1.221968    0.866790
      7          1           0        0.229528   -1.222113   -0.866603
      8          1           0        1.174706    1.097338    0.863699
      9          1           0        1.174709    1.097191   -0.863906
     10          6           0        2.663805   -0.192563    0.000007
     11          1           0        2.807467   -0.820753    0.875337
     12          1           0        3.452721    0.555806   -0.000061
     13          1           0        2.807465   -0.820909   -0.875211
 ---------------------------------------------------------------------

 SCF Done:  E(RHF) =  -305.427629542     A.U. after    1 cycles

 The electronic state is 1-A.
 Alpha  occ. eigenvalues --  -20.28602 -20.28145 -11.12223 -11.08960 -11.06844
 Alpha  occ. eigenvalues --  -11.04687  -1.17885  -1.07374  -0.91513  -0.79459
 Alpha  occ. eigenvalues --   -0.66959  -0.51895  -0.49130  -0.45409  -0.42731
 Alpha  occ. eigenvalues --   -0.41347  -0.39927  -0.36439  -0.34945  -0.32858
 Alpha  occ. eigenvalues --   -0.31239  -0.20556  -0.19196  -0.19073
 Alpha virt. eigenvalues --    0.10630   0.12209   0.12496   0.14353   0.14998
 Alpha virt. eigenvalues --    0.15311   0.15773   0.19140   0.19494   0.20764
 Alpha virt. eigenvalues --    0.21931   0.23043   0.23507   0.23957   0.24283

 Mulliken charges:
               1
     1  C   -0.146496
     2  C    0.350435
     3  O   -0.823615
     4  O   -0.861811
     5  C   -0.322231
     6  H    0.224456
     7  H    0.224460
     8  H    0.249058
     9  H    0.249051
    10  C   -0.933921
    11  H    0.264228
    12  H    0.262156
    13  H    0.264229
 Sum of Mulliken charges =  -1.00000

 Dipole moment (field-independent basis, Debye):
    X=              8.1700    Y=             -0.9453    Z=              0.0000  Tot=              8.2245
 Quadrupole moment (field-independent basis, Debye-Ang):
   XX=            -63.9002   YY=            -48.8051   ZZ=            -38.5687
   XY=             -0.2756   XZ=             -0.0002   YZ=             -0.0002

  Exact polarizability:      69.603       0.808      61.569       0.000      -0.000      49.486
 Approx polarizability:      51.802       1.046      55.977       0.000       0.000      48.703

 ESP charges:
               1
     1  C   -0.258363
     2  C    0.981547
     3  O   -0.882846
     4  O   -0.898214
     5  C    0.434993
     6  H    0.010981
     7  H    0.010979
     8  H   -0.087667
     9  H   -0.087671
    10  C   -0.373655
    11  H    0.057355
    12  H    0.035205
    13  H    0.057355
 Sum of ESP charges =  -1.00000

                      1                      2                      3
                      A                      A                      A
 Frequencies --     26.5084               107.1002               199.9528
 Red. masses --      2.1551                 2.5798                 4.1395
 Frc consts  --      0.0009                 0.0174                 0.0975
 IR Inten    --      0.1971                 4.7223                 2.7175
 Raman Activ --      0.1736                 0.0421                 0.1703

                      4                      5                      6
                      A                      A                      A
 Frequencies --    261.7854               360.5512               509.9979
 Red. masses --      1.0753                 3.7113                 5.4923
 Frc consts  --      0.0434                 0.2843                 0.8417
 IR Inten    --      0.0041                 4.8280                 5.7636
 Raman Activ --      0.0059                 3.5292                 3.1598

                      7                      8                      9
                      A                      A                      A
 Frequencies --    641.3623               744.4584               808.1814
 Red. masses --      1.7860                 5.3217                 1.2260
 Frc consts  --      0.4329                 1.7377                 0.4718
 IR Inten    --      6.6370                26.4439                 5.4742
 Raman Activ --      0.5275                 0.6169                 0.2314

                     10                     11                     12
                      A                      A                      A
 Frequencies --    943.2689               959.9680               990.4147
 Red. masses --      2.5423                 1.4096                 3.0962
 Frc consts  --      1.3328                 0.7654                 1.7894
 IR Inten    --     38.5114                 3.3484                 8.2136
 Raman Activ --     17.9102                 0.2815                 1.0369

                     13                     14                     15
                      A                      A                      A
 Frequencies --   1099.4149              1201.4049              1201.6802
 Red. masses --      2.3137                 2.1070                 1.7616
 Frc consts  --      1.6477                 1.7918                 1.4988
 IR Inten    --      3.9831                 3.7440                 2.8177
 Raman Activ --      9.7452                 3.9525                 0.3917

                     16                     17                     18
                      A                      A                      A
 Frequencies --   1347.7404              1378.3387              1416.1891
 Red. masses --      1.3704                 1.4501                 1.0946
 Frc consts  --      1.4665                 1.6232                 1.2935
 IR Inten    --      0.6186                27.1318                 0.6029
 Raman Activ --      0.2697                 2.5295                 5.0225

                     19                     20                     21
                      A                      A                      A
 Frequencies --   1487.1035              1516.6404              1521.5590
 Red. masses --      1.6979                 1.4419                 4.1216
 Frc consts  --      2.2123                 1.9542                 5.6220
 IR Inten    --     31.7514                35.2330               312.1978
 Raman Activ --      1.6259                 1.2248                16.4117

                     22                     23                     24
                      A                      A                      A
 Frequencies --   1580.1286              1602.0114              1608.0890
 Red. masses --      1.1103                 1.0561                 1.0442
 Frc consts  --      1.6333                 1.5969                 1.5910
 IR Inten    --      1.6128                 0.5790                 3.6487
 Raman Activ --      5.9522                 6.3843                 4.2117

                     25                     26                     27
                      A                      A                      A
 Frequencies --   1620.6464              1795.8724              3120.5060
 Red. masses --      1.0848                11.2031                 1.0392
 Frc consts  --      1.6787                21.2883                 5.9621
 IR Inten    --      5.5552               800.1653                59.4167
 Raman Activ --      0.2588                 4.5220                76.3688

                     28                     29                     30
                      A                      A                      A
 Frequencies --   3130.9321              3147.0628              3155.3383
 Red. masses --      1.0578                 1.1007                 1.0841
 Frc consts  --      6.1094                 6.4228                 6.3593
 IR Inten    --     70.0528                32.6903                17.4946
 Raman Activ --    207.5516               102.3969               142.3269

                     31                     32                     33
                      A                      A                      A
 Frequencies --   3161.4422              3175.1000              3204.2826
 Red. masses --      1.1012                 1.0756                 1.1049
 Frc consts  --      6.4849                 6.3888                 6.6842
 IR Inten    --     14.6627               117.3324               137.9348
 Raman Activ --     69.3764                92.1175                 4.8433

 - Thermochemistry -
 -------------------
 Temperature   298.150 Kelvin.  Pressure   1.00000 Atm.
 Atom     1 has atomic number  6 and mass  12.00000

 Molecular mass:    87.04460 amu.
 Principal axes and moments of inertia in atomic units:
                           1         2         3
     Eigenvalues --   193.44719 950.961751111.82462
           X            0.99999  -0.00399  -0.00000
           Y            0.00399   0.99999  -0.00000
           Z            0.00000   0.00000   1.00000
 This molecule is an asymmetric top.
 Rotational symmetry number  1.
 Rotational temperatures (Kelvin)      0.44774     0.09108     0.07790
 Rotational constants (GHZ):           9.32937     1.89781     1.62322
 Zero-point vibrational energy     293234.8 (Joules/Mol)
                                   70.08480 (Kcal/Mol)
 Warning -- explicit consideration of   6 degrees of freedom as
           vibrations may cause significant error
 Vibrational temperatures:     38.14   154.09   287.69   376.65   518.75
          (Kelvin)            733.77   922.78  1071.11  1162.79  1357.15
                             1381.18  1424.99  1581.81  1728.55  1728.95
                             1939.10  1983.12  2037.58  2139.61  2182.11
                             2189.18  2273.45  2304.94  2313.68  2331.75
                             2583.86  4489.71  4504.71  4527.92  4539.83
                             4548.61  4568.26  4610.25

 Zero-point correction=                           0.111687 (Hartree/Particle)
 Thermal correction to Energy=                    0.118272
 Thermal correction to Enthalpy=                  0.119217
 Thermal correction to Gibbs Free Energy=         0.080022
 Sum of electronic and zero-point Energies=           -305.315942
 Sum of electronic and thermal Energies=              -305.309357
 Sum of electronic and thermal Enthalpies=            -305.308413
 Sum of electronic and thermal Free Energies=         -305.347607

                     E (Thermal)             CV                S
                      KCal/Mol        Cal/Mol-Kelvin    Cal/Mol-Kelvin
 Total                   74.217             21.320             82.492
 Electronic               0.000              0.000              0.000
 Translational            0.889              2.981             39.304
 Rotational               0.889              2.981             26.817
 Vibrational             72.440             15.358             16.371
 Vibration     1          0.593              1.984              6.075
 Vibration     2          0.606              1.944              3.321
 Vibration     3          0.638              1.840              2.134
 Vibration     4          0.669              1.743              1.650
 Vibration     5          0.735              1.554              1.120
 Vibration     6          0.865              1.228              0.634

                           ! Non-Optimized Parameters !
 Normal termination of Gaussian 16 at Mon Sep 29 00:41:03 2025.
