 Gaussian 16, Revision C.01,
 Gaussian 16:  ES64L-G16RevC.01  3-Jul-2019

 ----------------------------------------------------------------------
 #P HF/aug-cc-pvtz Opt=tight Pop=(MK,Hirshfeld) iop(6/33=2) iop(6/42=6)
  maxdisk=128GB
 ----------------------------------------------------------------------

 ---------
 butanoate
 ---------
 Symbolic Z-matrix:
 Charge = -1 Multiplicity = 1

 SCF Done:  E(RHF) =  -305.427629541     A.U. after   12 cycles
 SCF Done:  E(RHF) =  -305.427629493     A.U. after    6 cycles
 SCF Done:  E(RHF) =  -305.427629542     A.U. after    6 cycles
 Optimization completed.
    -- Stationary point found.

                         Standard orientation:
 ---------------------------------------------------------------------
 Center     Atomic      Atomic             Coordinates (Angstroms)
 Number     Number       Type             X           Y           Z
 ---------------------------------------------------------------------
      1          6           0        0.146918   -0.569757    0.000038
      2          6           0       -1.291678    0.009212    0.000003
      3          8           0       -1.398387    1.235740    0.000001
      4          8           0       -2.183345   -0.841558   -0.000013
      5          6           0        1.277235    0.450098   -0.000042
      6          1           0        0.229537   -1.221967    0.866790
      7          1           0        0.229531   -1.222114   -0.866604
      8          1           0        1.174707    1.097335    0.863706
      9          1           0        1.174709    1.097193   -0.863898
     10          6           0        2.663809   -0.192562    0.000007
     11          1           0        2.807473   -0.820755    0.875334
     12          1           0        3.452724    0.555808   -0.000057
     13          1           0        2.807471   -0.820903   -0.875213
 ---------------------------------------------------------------------

 The electronic state is 1-A.
 Alpha  occ. eigenvalues --  -20.28602 -20.28145 -11.12223 -11.08960 -11.06844
 Alpha  occ. eigenvalues --  -11.04687  -1.17885  -1.07374  -0.91513  -0.79459
 Alpha  occ. eigenvalues --   -0.66959  -0.51895  -0.49130  -0.45409  -0.42731
 Alpha  occ. eigenvalues --   -0.41347  -0.39927  -0.36439  -0.34945  -0.32858
 Alpha  occ. eigenvalues --   -0.31239  -0.20556  -0.19196  -0.19073
 Alpha virt. eigenvalues --    0.10630   0.12209   0.12496   0.14353   0.14998
 Alpha virt. eigenvalues --    0.15311   0.15773   0.19140   0.19494   0.20764
 Alpha virt. eigenvalues --    0.21931   0.23043   0.23507   0.23957   0.24283

 Mulliken charges:
               1
     1  C   -0.146501
     2  C    0.350440
     3  O   -0.823615
     4  O   -0.861810
     5  C   -0.322232
     6  H    0.224455
     7  H    0.224461
     8  H    0.249058
     9  H    0.249051
    10  C   -0.933920
    11  H    0.264228
    12  H    0.262157
    13  H    0.264229
 Sum of Mulliken charges =  -1.00000

 Dipole moment (field-independent basis, Debye):
    X=              8.1700    Y=             -0.9453    Z=              0.0000  Tot=              8.2245
 Quadrupole moment (field-independent basis, Debye-Ang):
   XX=            -63.9002   YY=            -48.8051   ZZ=            -38.5687
   XY=             -0.2756   XZ=             -0.0001   YZ=              0.0000

 ESP charges:
               1
     1  C   -0.272723
     2  C    0.989194
     3  O   -0.884564
     4  O   -0.899994
     5  C    0.447265
     6  H    0.013514
     7  H    0.013512
     8  H   -0.090122
     9  H   -0.090126
    10  C   -0.374102
    11  H    0.056634
    12  H    0.034877
    13  H    0.056635
 Sum of ESP charges =  -1.00000

 Normal termination of Gaussian 16 at Tue Sep 30 17:03:48 2025.
