 Gaussian 16, Revision C.01,
 Gaussian 16:  ES64L-G16RevC.01  3-Jul-2019

 ----------------------------------------------------------------------
 #P MP2/aug-cc-pvtz Opt=tight density=MP2 Pop=(MK,Hirshfeld) iop(6/33=2
 ) iop(6/42=6) maxdisk=128GB
 ----------------------------------------------------------------------

 -------
 acetate
 -------
 Symbolic Z-matrix:
 Charge = -1 Multiplicity = 1

 SCF Done:  E(RHF) =  -227.330758771     A.U. after   12 cycles
 E2 =    -0.8278022413D+00 EUMP2 =    -0.22815856101255D+03
 SCF Done:  E(RHF) =  -227.328670074     A.U. after   10 cycles
 E2 =    -0.8320774802D+00 EUMP2 =    -0.22816074755433D+03
 SCF Done:  E(RHF) =  -227.312700756     A.U. after   12 cycles
 E2 =    -0.8362323120D+00 EUMP2 =    -0.22814893306769D+03
 SCF Done:  E(RHF) =  -227.328255009     A.U. after    9 cycles
 E2 =    -0.8325753732D+00 EUMP2 =    -0.22816083038235D+03
 SCF Done:  E(RHF) =  -227.328251406     A.U. after    8 cycles
 E2 =    -0.8325849369D+00 EUMP2 =    -0.22816083634300D+03
 SCF Done:  E(RHF) =  -227.328273347     A.U. after    6 cycles
 E2 =    -0.8325633864D+00 EUMP2 =    -0.22816083673293D+03
 SCF Done:  E(RHF) =  -227.328275915     A.U. after    5 cycles
 E2 =    -0.8325608624D+00 EUMP2 =    -0.22816083677757D+03
 Optimization completed.
    -- Stationary point found.

                         Standard orientation:
 ---------------------------------------------------------------------
 Center     Atomic      Atomic             Coordinates (Angstroms)
 Number     Number       Type             X           Y           Z
 ---------------------------------------------------------------------
      1          6           0        1.345116    0.000029   -0.004877
      2          6           0       -0.204809   -0.000001   -0.010183
      3          8           0       -0.749744    1.136938    0.001978
      4          8           0       -0.749686   -1.136968    0.001978
      5          1           0        1.734387    0.896244   -0.487299
      6          1           0        1.684805   -0.000155    1.033612
      7          1           0        1.734407   -0.896015   -0.487603
 ---------------------------------------------------------------------

 The electronic state is 1-A.
 Alpha  occ. eigenvalues --  -20.28603 -20.28599 -11.13144 -11.04433  -1.15746
 Alpha  occ. eigenvalues --   -1.05814  -0.79197  -0.51035  -0.41547  -0.41272
 Alpha  occ. eigenvalues --   -0.40995  -0.35893  -0.31503  -0.20156  -0.19243
 Alpha  occ. eigenvalues --   -0.18735
 Alpha virt. eigenvalues --    0.13277   0.14357   0.14510   0.18512   0.22136
 Alpha virt. eigenvalues --    0.22944   0.23015   0.24919   0.25152   0.26709
 Alpha virt. eigenvalues --    0.30789   0.32888   0.33286   0.35901   0.36078

 Mulliken charges:
               1
     1  C   -0.714161
     2  C    0.288522
     3  O   -0.691222
     4  O   -0.691235
     5  H    0.284370
     6  H    0.239376
     7  H    0.284349
 Sum of Mulliken charges =  -1.00000

 Dipole moment (field-independent basis, Debye):
    X=              3.7081    Y=              0.0001    Z=             -0.0118  Tot=              3.7081
 Quadrupole moment (field-independent basis, Debye-Ang):
   XX=            -33.1884   YY=            -36.4384   ZZ=            -26.1798
   XY=              0.0001   XZ=              0.0420   YZ=              0.0000

 ESP charges:
               1
     1  C   -0.368137
     2  C    0.953900
     3  O   -0.846377
     4  O   -0.846380
     5  H    0.033408
     6  H    0.040176
     7  H    0.033410
 Sum of ESP charges =  -1.00000

 Normal termination of Gaussian 16 at Tue Sep 30 17:07:34 2025.
