 Gaussian 16, Revision C.01,
 Gaussian 16:  ES64L-G16RevC.01  3-Jul-2019

 ----------------------------------------------------------------------
 #P MP2/aug-cc-pvtz Opt=tight density=MP2 Pop=(MK,Hirshfeld) iop(6/33=2
 ) iop(6/42=6) maxdisk=128GB
 ----------------------------------------------------------------------

 --------------
 methylammonium
 --------------
 Symbolic Z-matrix:
 Charge =  1 Multiplicity = 1

 SCF Done:  E(RHF) =  -95.6192435442     A.U. after   10 cycles
 E2 =    -0.4009944914D+00 EUMP2 =    -0.96020238035559D+02
 SCF Done:  E(RHF) =  -95.6186568317     A.U. after    8 cycles
 E2 =    -0.4021455756D+00 EUMP2 =    -0.96020802407288D+02
 SCF Done:  E(RHF) =  -95.6186483477     A.U. after    6 cycles
 E2 =    -0.4021559790D+00 EUMP2 =    -0.96020804326702D+02
 SCF Done:  E(RHF) =  -95.6186465539     A.U. after    5 cycles
 E2 =    -0.4021579511D+00 EUMP2 =    -0.96020804505019D+02
 SCF Done:  E(RHF) =  -95.6186472814     A.U. after    4 cycles
 E2 =    -0.4021572142D+00 EUMP2 =    -0.96020804495653D+02
 SCF Done:  E(RHF) =  -95.6186471217     A.U. after    3 cycles
 E2 =    -0.4021573772D+00 EUMP2 =    -0.96020804498833D+02
 SCF Done:  E(RHF) =  -95.6186473779     A.U. after    3 cycles
 E2 =    -0.4021571171D+00 EUMP2 =    -0.96020804495049D+02
 SCF Done:  E(RHF) =  -95.6186471172     A.U. after    3 cycles
 E2 =    -0.4021573890D+00 EUMP2 =    -0.96020804506236D+02
 SCF Done:  E(RHF) =  -95.6186473701     A.U. after    4 cycles
 E2 =    -0.4021571320D+00 EUMP2 =    -0.96020804502068D+02
 SCF Done:  E(RHF) =  -95.6186473149     A.U. after    3 cycles
 E2 =    -0.4021571879D+00 EUMP2 =    -0.96020804502776D+02
 Optimization completed.
    -- Stationary point found.

                         Standard orientation:
 ---------------------------------------------------------------------
 Center     Atomic      Atomic             Coordinates (Angstroms)
 Number     Number       Type             X           Y           Z
 ---------------------------------------------------------------------
      1          7           0       -0.000000    0.707045    0.000000
      2          6           0       -0.000000   -0.796912   -0.000000
      3          1           0        0.951542    1.078895    0.000000
      4          1           0       -0.475770    1.078895    0.824060
      5          1           0       -0.475770    1.078895   -0.824060
      6          1           0        0.515031   -1.134843    0.892060
      7          1           0        0.515031   -1.134843   -0.892060
      8          1           0       -1.030063   -1.134843   -0.000000
 ---------------------------------------------------------------------

 The electronic state is 1-A'.
 Alpha  occ. eigenvalues --  -15.91176 -11.49097  -1.52796  -1.17739  -0.98728
 Alpha  occ. eigenvalues --   -0.98728  -0.86580  -0.78360  -0.78360
 Alpha virt. eigenvalues --   -0.12775  -0.08654  -0.08654  -0.08426  -0.04770
 Alpha virt. eigenvalues --   -0.04770  -0.04371  -0.01887  -0.01887  -0.01568
 Alpha virt. eigenvalues --    0.00554   0.00554   0.00763   0.03967   0.03967

 Mulliken charges:
               1
     1  N    0.110613
     2  C   -0.805122
     3  H    0.176426
     4  H    0.176426
     5  H    0.176426
     6  H    0.388410
     7  H    0.388410
     8  H    0.388410
 Sum of Mulliken charges =   1.00000

 Dipole moment (field-independent basis, Debye):
    X=              0.0000    Y=              2.1732    Z=              0.0000  Tot=              2.1732
 Quadrupole moment (field-independent basis, Debye-Ang):
   XX=            -10.2155   YY=             -6.9210   ZZ=            -10.2155
   XY=              0.0000   XZ=              0.0000   YZ=              0.0000

 ESP charges:
               1
     1  N   -0.355326
     2  C   -0.088853
     3  H    0.342662
     4  H    0.342360
     5  H    0.342360
     6  H    0.138932
     7  H    0.138932
     8  H    0.138934
 Sum of ESP charges =   1.00000

 Normal termination of Gaussian 16 at Tue Sep 30 17:03:05 2025.
